# vtk DataFile Version 1.0
Cube
ASCII

DATASET POLYDATA
POINTS 404 float
6.162972 0.520010 8.487900
6.451071 0.878801 5.461500
3.964390 6.715492 7.617843
9.366504 6.772852 6.383658
9.175692 12.381505 11.927602
4.897143 6.290450 7.272731
8.433935 7.197942 6.729244
4.903046 4.959096 6.857358
8.427309 8.529588 7.145177
7.220834 5.085947 6.346573
6.110477 8.401386 7.656034
7.255740 6.439547 6.765339
6.075695 7.048218 7.236765
6.821016 12.317824 12.238036
7.814954 3.226469 12.475766
8.587832 10.983986 2.244476
6.386471 11.572065 11.060718
6.919306 1.928943 2.991422
5.269320 1.257720 0.026750
6.206308 11.466359 1.149161
5.034806 0.826988 1.491010
6.499328 1.173807 1.812509
6.734044 1.599018 0.356882
7.668018 11.823205 1.467548
7.182981 0.163736 0.003440
7.932737 0.989269 25.088664
8.938548 0.609347 7.331966
3.700926 0.842053 6.649012
10.328522 0.658816 7.185948
2.310953 0.792310 6.794995
11.505516 0.701065 7.062351
1.133958 0.750337 6.918628
5.299695 9.847958 1.715402
4.445735 2.747571 11.490281
3.510792 1.324259 2.582368
7.276329 9.117732 7.593250
6.054042 4.370826 6.409947
9.313525 10.322733 2.856648
8.373014 4.183923 12.143668
3.384655 4.081449 6.923421
4.657232 9.174174 8.280941
8.674252 4.309469 5.723422
9.945341 9.407863 7.078984
6.744264 3.196947 3.014343
7.423308 1.295023 3.980311
7.234484 11.393665 10.104913
5.174040 11.128970 11.023182
8.440067 0.450905 8.485867
4.199407 1.000496 5.495111
4.437979 0.723251 7.672568
8.201496 0.728150 6.308410
6.537850 0.932777 21.030512
6.825949 1.291567 18.004112
4.339268 7.128259 20.160455
9.741382 7.185619 18.926270
9.550569 12.794272 24.470214
5.272021 6.703216 19.815343
8.808812 7.610708 19.271856
5.277923 5.371863 19.399970
8.802187 8.942354 19.687789
7.595712 5.498714 18.889185
6.485355 8.814152 20.198646
7.630618 6.852314 19.307951
6.450573 7.460985 19.779377
7.195894 12.730591 24.780648
8.189831 3.639235 25.018378
8.962710 11.396753 14.787088
6.761348 11.984831 23.603330
7.294184 2.341709 15.534034
5.644197 1.670486 12.569362
6.581186 11.879126 13.691772
5.409684 1.239755 14.033622
6.874206 1.586574 14.355121
7.108922 2.011785 12.899494
8.042896 12.235971 14.010160
7.557859 0.576503 12.546052
9.313426 1.022113 19.874578
4.075804 1.254819 19.191624
10.703399 1.071582 19.728560
2.685830 1.205076 19.337607
11.880394 1.113832 19.604963
1.508836 1.163104 19.461240
5.674573 10.260724 14.258014
4.820613 3.160338 24.032893
3.885670 1.737026 15.124980
7.651207 9.530498 20.135862
6.428919 4.783592 18.952559
9.688403 10.735499 15.399260
8.747892 4.596689 24.686280
3.759532 4.494215 19.466033
5.032110 9.586940 20.823553
9.049130 4.722235 18.266034
10.320219 9.820629 19.621596
7.119142 3.609713 15.556955
7.798185 1.707789 16.522923
7.609362 11.806431 22.647525
5.548917 11.541737 23.565794
8.814945 0.863671 21.028479
4.574285 1.413262 18.037723
4.812856 1.136018 20.215180
8.576373 1.140916 18.851022
6.901253 12.603007 8.487900
7.189352 12.961797 5.461500
4.702671 18.798489 7.617843
10.104785 18.855848 6.383658
9.913972 24.464502 11.927602
5.635424 18.373446 7.272731
9.172215 19.280938 6.729244
5.641326 17.042093 6.857358
9.165589 20.612584 7.145177
7.959114 17.168943 6.346573
6.848758 20.484382 7.656034
7.994021 18.522543 6.765339
6.813976 19.131214 7.236765
7.559297 24.400821 12.238036
8.553234 15.309465 12.475766
9.326112 23.066982 2.244476
7.124751 23.655061 11.060718
7.657586 14.011939 2.991422
6.007600 13.340716 0.026750
6.944589 23.549355 1.149161
5.773087 12.909984 1.491010
7.237609 13.256804 1.812509
7.472324 13.682014 0.356882
8.406298 23.906201 1.467548
7.921262 12.246733 0.003440
8.671017 13.072265 25.088664
9.676828 12.692343 7.331966
4.439206 12.925049 6.649012
11.066802 12.741812 7.185948
3.049233 12.875306 6.794995
12.243797 12.784062 7.062351
1.872239 12.833334 6.918628
6.037976 21.930954 1.715402
5.184016 14.830567 11.490281
4.249072 13.407256 2.582368
8.014610 21.200728 7.593250
6.792322 16.453822 6.409947
10.051806 22.405729 2.856648
9.111295 16.266919 12.143668
4.122935 16.164445 6.923421
5.395513 21.257170 8.280941
9.412532 16.392465 5.723422
10.683622 21.490859 7.078984
7.482545 15.279943 3.014343
8.161588 13.378019 3.980311
7.972765 23.476661 10.104913
5.912320 23.211967 11.023182
9.178347 12.533901 8.485867
4.937688 13.083492 5.495111
5.176259 12.806247 7.672568
8.939776 12.811146 6.308410
7.276130 13.015773 21.030512
7.564229 13.374563 18.004112
5.077549 19.211255 20.160455
10.479663 19.268615 18.926270
10.288850 24.877268 24.470214
6.010301 18.786213 19.815343
9.547093 19.693705 19.271856
6.016204 17.454859 19.399970
9.540467 21.025351 19.687789
8.333992 17.581710 18.889185
7.223636 20.897148 20.198646
8.368899 18.935310 19.307951
7.188854 19.543981 19.779377
7.934175 24.813587 24.780648
8.928112 15.722232 25.018378
9.700990 23.479749 14.787088
7.499629 24.067828 23.603330
8.032464 14.424705 15.534034
6.382478 13.753482 12.569362
7.319466 23.962122 13.691772
6.147964 13.322751 14.033622
7.612487 13.669570 14.355121
7.847202 14.094781 12.899494
8.781176 24.318967 14.010160
8.296140 12.659499 12.546052
10.051706 13.105110 19.874578
4.814084 13.337815 19.191624
11.441680 13.154578 19.728560
3.424111 13.288073 19.337607
12.618674 13.196828 19.604963
2.247116 13.246100 19.461240
6.412854 22.343721 14.258014
5.558894 15.243334 24.032893
4.623950 13.820022 15.124980
8.389488 21.613494 20.135862
7.167200 16.866588 18.952559
10.426684 22.818495 15.399260
9.486172 16.679686 24.686280
4.497813 16.577212 19.466033
5.770390 21.669936 20.823553
9.787410 16.805231 18.266034
11.058500 21.903625 19.621596
7.857422 15.692709 15.556955
8.536466 13.790785 16.522923
8.347643 23.889427 22.647525
6.287198 23.624733 23.565794
9.553225 12.946667 21.028479
5.312566 13.496259 18.037723
5.551137 13.219014 20.215180
9.314654 13.223912 18.851022
17.903332 0.520010 8.487900
18.191431 0.878801 5.461500
15.704750 6.715492 7.617843
21.106864 6.772852 6.383658
20.916052 12.381505 11.927602
16.637503 6.290450 7.272731
20.174295 7.197942 6.729244
16.643406 4.959096 6.857358
20.167669 8.529588 7.145177
18.961194 5.085947 6.346573
17.850837 8.401386 7.656034
18.996100 6.439547 6.765339
17.816055 7.048218 7.236765
18.561376 12.317824 12.238036
19.555314 3.226469 12.475766
20.328192 10.983986 2.244476
18.126831 11.572065 11.060718
18.659666 1.928943 2.991422
17.009680 1.257720 0.026750
17.946668 11.466359 1.149161
16.775166 0.826988 1.491010
18.239688 1.173807 1.812509
18.474404 1.599018 0.356882
19.408378 11.823205 1.467548
18.923341 0.163736 0.003440
19.673097 0.989269 25.088664
20.678908 0.609347 7.331966
15.441286 0.842053 6.649012
22.068882 0.658816 7.185948
14.051313 0.792310 6.794995
23.245876 0.701065 7.062351
12.874318 0.750337 6.918628
17.040055 9.847958 1.715402
16.186095 2.747571 11.490281
15.251152 1.324259 2.582368
19.016689 9.117732 7.593250
17.794402 4.370826 6.409947
21.053885 10.322733 2.856648
20.113374 4.183923 12.143668
15.125015 4.081449 6.923421
16.397592 9.174174 8.280941
20.414612 4.309469 5.723422
21.685701 9.407863 7.078984
18.484624 3.196947 3.014343
19.163668 1.295023 3.980311
18.974844 11.393665 10.104913
16.914400 11.128970 11.023182
20.180427 0.450905 8.485867
15.939767 1.000496 5.495111
16.178339 0.723251 7.672568
19.941856 0.728150 6.308410
18.278210 0.932777 21.030512
18.566309 1.291567 18.004112
16.079628 7.128259 20.160455
21.481742 7.185619 18.926270
21.290929 12.794272 24.470214
17.012381 6.703216 19.815343
20.549172 7.610708 19.271856
17.018283 5.371863 19.399970
20.542547 8.942354 19.687789
19.336072 5.498714 18.889185
18.225715 8.814152 20.198646
19.370978 6.852314 19.307951
18.190933 7.460985 19.779377
18.936254 12.730591 24.780648
19.930191 3.639235 25.018378
20.703070 11.396753 14.787088
18.501708 11.984831 23.603330
19.034544 2.341709 15.534034
17.384557 1.670486 12.569362
18.321546 11.879126 13.691772
17.150044 1.239755 14.033622
18.614566 1.586574 14.355121
18.849282 2.011785 12.899494
19.783256 12.235971 14.010160
19.298219 0.576503 12.546052
21.053786 1.022113 19.874578
15.816164 1.254819 19.191624
22.443759 1.071582 19.728560
14.426190 1.205076 19.337607
23.620754 1.113832 19.604963
13.249196 1.163104 19.461240
17.414933 10.260724 14.258014
16.560973 3.160338 24.032893
15.626030 1.737026 15.124980
19.391567 9.530498 20.135862
18.169279 4.783592 18.952559
21.428763 10.735499 15.399260
20.488252 4.596689 24.686280
15.499892 4.494215 19.466033
16.772470 9.586940 20.823553
20.789490 4.722235 18.266034
22.060579 9.820629 19.621596
18.859502 3.609713 15.556955
19.538545 1.707789 16.522923
19.349722 11.806431 22.647525
17.289277 11.541737 23.565794
20.555305 0.863671 21.028479
16.314645 1.413262 18.037723
16.553216 1.136018 20.215180
20.316733 1.140916 18.851022
18.641613 12.603007 8.487900
18.929712 12.961797 5.461500
16.443031 18.798489 7.617843
21.845145 18.855848 6.383658
21.654332 24.464502 11.927602
17.375784 18.373446 7.272731
20.912575 19.280938 6.729244
17.381686 17.042093 6.857358
20.905949 20.612584 7.145177
19.699474 17.168943 6.346573
18.589118 20.484382 7.656034
19.734381 18.522543 6.765339
18.554336 19.131214 7.236765
19.299657 24.400821 12.238036
20.293594 15.309465 12.475766
21.066472 23.066982 2.244476
18.865111 23.655061 11.060718
19.397946 14.011939 2.991422
17.747960 13.340716 0.026750
18.684949 23.549355 1.149161
17.513447 12.909984 1.491010
18.977969 13.256804 1.812509
19.212684 13.682014 0.356882
20.146658 23.906201 1.467548
19.661622 12.246733 0.003440
20.411377 13.072265 25.088664
21.417188 12.692343 7.331966
16.179566 12.925049 6.649012
22.807162 12.741812 7.185948
14.789593 12.875306 6.794995
23.984157 12.784062 7.062351
13.612599 12.833334 6.918628
17.778336 21.930954 1.715402
16.924376 14.830567 11.490281
15.989432 13.407256 2.582368
19.754970 21.200728 7.593250
18.532682 16.453822 6.409947
21.792166 22.405729 2.856648
20.851655 16.266919 12.143668
15.863295 16.164445 6.923421
17.135873 21.257170 8.280941
21.152892 16.392465 5.723422
22.423982 21.490859 7.078984
19.222905 15.279943 3.014343
19.901948 13.378019 3.980311
19.713125 23.476661 10.104913
17.652680 23.211967 11.023182
20.918707 12.533901 8.485867
16.678048 13.083492 5.495111
16.916619 12.806247 7.672568
20.680136 12.811146 6.308410
19.016490 13.015773 21.030512
19.304589 13.374563 18.004112
16.817909 19.211255 20.160455
22.220023 19.268615 18.926270
22.029210 24.877268 24.470214
17.750661 18.786213 19.815343
21.287453 19.693705 19.271856
17.756564 17.454859 19.399970
21.280827 21.025351 19.687789
20.074352 17.581710 18.889185
18.963996 20.897148 20.198646
20.109259 18.935310 19.307951
18.929214 19.543981 19.779377
19.674535 24.813587 24.780648
20.668472 15.722232 25.018378
21.441350 23.479749 14.787088
19.239989 24.067828 23.603330
19.772824 14.424705 15.534034
18.122838 13.753482 12.569362
19.059826 23.962122 13.691772
17.888324 13.322751 14.033622
19.352847 13.669570 14.355121
19.587562 14.094781 12.899494
20.521536 24.318967 14.010160
20.036500 12.659499 12.546052
21.792066 13.105110 19.874578
16.554444 13.337815 19.191624
23.182040 13.154578 19.728560
15.164471 13.288073 19.337607
24.359034 13.196828 19.604963
13.987476 13.246100 19.461240
18.153214 22.343721 14.258014
17.299254 15.243334 24.032893
16.364310 13.820022 15.124980
20.129848 21.613494 20.135862
18.907560 16.866588 18.952559
22.167044 22.818495 15.399260
21.226532 16.679686 24.686280
16.238173 16.577212 19.466033
17.510750 21.669936 20.823553
21.527770 16.805231 18.266034
22.798860 21.903625 19.621596
19.597782 15.692709 15.556955
20.276826 13.790785 16.522923
20.088003 23.889427 22.647525
18.027558 23.624733 23.565794
21.293585 12.946667 21.028479
17.052926 13.496259 18.037723
17.291497 13.219014 20.215180
21.055014 13.223912 18.851022
POINT_DATA 404
SCALARS my_scalars float
LOOKUP_TABLE default
1.39
1.39
1.09
1.09
1.09
1.7
1.7
1.7
1.7
1.7
1.7
1.7
1.7
1.7
1.7
1.7
1.7
1.7
1.7
1.7
1.7
1.7
1.7
1.7
1.7
1.7
1.7
1.7
1.7
1.7
1.7
1.7
1.85
1.85
1.85
1.55
1.55
1.55
1.55
1.75
1.75
1.75
1.75
1.52
1.52
1.52
1.52
1.52
1.52
1.52
1.52
1.39
1.39
1.09
1.09
1.09
1.7
1.7
1.7
1.7
1.7
1.7
1.7
1.7
1.7
1.7
1.7
1.7
1.7
1.7
1.7
1.7
1.7
1.7
1.7
1.7
1.7
1.7
1.7
1.7
1.7
1.7
1.85
1.85
1.85
1.55
1.55
1.55
1.55
1.75
1.75
1.75
1.75
1.52
1.52
1.52
1.52
1.52
1.52
1.52
1.52
1.39
1.39
1.09
1.09
1.09
1.7
1.7
1.7
1.7
1.7
1.7
1.7
1.7
1.7
1.7
1.7
1.7
1.7
1.7
1.7
1.7
1.7
1.7
1.7
1.7
1.7
1.7
1.7
1.7
1.7
1.7
1.7
1.85
1.85
1.85
1.55
1.55
1.55
1.55
1.75
1.75
1.75
1.75
1.52
1.52
1.52
1.52
1.52
1.52
1.52
1.52
1.39
1.39
1.09
1.09
1.09
1.7
1.7
1.7
1.7
1.7
1.7
1.7
1.7
1.7
1.7
1.7
1.7
1.7
1.7
1.7
1.7
1.7
1.7
1.7
1.7
1.7
1.7
1.7
1.7
1.7
1.7
1.85
1.85
1.85
1.55
1.55
1.55
1.55
1.75
1.75
1.75
1.75
1.52
1.52
1.52
1.52
1.52
1.52
1.52
1.52
1.39
1.39
1.09
1.09
1.09
1.7
1.7
1.7
1.7
1.7
1.7
1.7
1.7
1.7
1.7
1.7
1.7
1.7
1.7
1.7
1.7
1.7
1.7
1.7
1.7
1.7
1.7
1.7
1.7
1.7
1.7
1.7
1.85
1.85
1.85
1.55
1.55
1.55
1.55
1.75
1.75
1.75
1.75
1.52
1.52
1.52
1.52
1.52
1.52
1.52
1.52
1.39
1.39
1.09
1.09
1.09
1.7
1.7
1.7
1.7
1.7
1.7
1.7
1.7
1.7
1.7
1.7
1.7
1.7
1.7
1.7
1.7
1.7
1.7
1.7
1.7
1.7
1.7
1.7
1.7
1.7
1.7
1.85
1.85
1.85
1.55
1.55
1.55
1.55
1.75
1.75
1.75
1.75
1.52
1.52
1.52
1.52
1.52
1.52
1.52
1.52
1.39
1.39
1.09
1.09
1.09
1.7
1.7
1.7
1.7
1.7
1.7
1.7
1.7
1.7
1.7
1.7
1.7
1.7
1.7
1.7
1.7
1.7
1.7
1.7
1.7
1.7
1.7
1.7
1.7
1.7
1.7
1.7
1.85
1.85
1.85
1.55
1.55
1.55
1.55
1.75
1.75
1.75
1.75
1.52
1.52
1.52
1.52
1.52
1.52
1.52
1.52
1.39
1.39
1.09
1.09
1.09
1.7
1.7
1.7
1.7
1.7
1.7
1.7
1.7
1.7
1.7
1.7
1.7
1.7
1.7
1.7
1.7
1.7
1.7
1.7
1.7
1.7
1.7
1.7
1.7
1.7
1.7
1.85
1.85
1.85
1.55
1.55
1.55
1.55
1.75
1.75
1.75
1.75
1.52
1.52
1.52
1.52
1.52
1.52
1.52
1.52
VECTORS vectors float
0.4375 0 0
0.4375 0 0
0.25 0 0
0.25 0 0
0.25 0 0
0.3125 0 0
0.3125 0 0
0.3125 0 0
0.3125 0 0
0.3125 0 0
0.3125 0 0
0.3125 0 0
0.3125 0 0
0.3125 0 0
0.3125 0 0
0.3125 0 0
0.3125 0 0
0.3125 0 0
0.3125 0 0
0.3125 0 0
0.3125 0 0
0.3125 0 0
0.3125 0 0
0.3125 0 0
0.3125 0 0
0.3125 0 0
0.3125 0 0
0.3125 0 0
0.3125 0 0
0.3125 0 0
0.3125 0 0
0.3125 0 0
0.4375 0 0
0.4375 0 0
0.4375 0 0
0 0 0
0 0 0
0 0 0
0 0 0
0.4375 0 0
0.4375 0 0
0.4375 0 0
0.4375 0 0
0.03125 0 0
0.03125 0 0
0.03125 0 0
0.03125 0 0
0.03125 0 0
0.03125 0 0
0.03125 0 0
0.03125 0 0
0.4375 0 0
0.4375 0 0
0.25 0 0
0.25 0 0
0.25 0 0
0.3125 0 0
0.3125 0 0
0.3125 0 0
0.3125 0 0
0.3125 0 0
0.3125 0 0
0.3125 0 0
0.3125 0 0
0.3125 0 0
0.3125 0 0
0.3125 0 0
0.3125 0 0
0.3125 0 0
0.3125 0 0
0.3125 0 0
0.3125 0 0
0.3125 0 0
0.3125 0 0
0.3125 0 0
0.3125 0 0
0.3125 0 0
0.3125 0 0
0.3125 0 0
0.3125 0 0
0.3125 0 0
0.3125 0 0
0.4375 0 0
0.4375 0 0
0.4375 0 0
0 0 0
0 0 0
0 0 0
0 0 0
0.4375 0 0
0.4375 0 0
0.4375 0 0
0.4375 0 0
0.03125 0 0
0.03125 0 0
0.03125 0 0
0.03125 0 0
0.03125 0 0
0.03125 0 0
0.03125 0 0
0.03125 0 0
0.4375 0 0
0.4375 0 0
0.25 0 0
0.25 0 0
0.25 0 0
0.3125 0 0
0.3125 0 0
0.3125 0 0
0.3125 0 0
0.3125 0 0
0.3125 0 0
0.3125 0 0
0.3125 0 0
0.3125 0 0
0.3125 0 0
0.3125 0 0
0.3125 0 0
0.3125 0 0
0.3125 0 0
0.3125 0 0
0.3125 0 0
0.3125 0 0
0.3125 0 0
0.3125 0 0
0.3125 0 0
0.3125 0 0
0.3125 0 0
0.3125 0 0
0.3125 0 0
0.3125 0 0
0.3125 0 0
0.3125 0 0
0.4375 0 0
0.4375 0 0
0.4375 0 0
0 0 0
0 0 0
0 0 0
0 0 0
0.4375 0 0
0.4375 0 0
0.4375 0 0
0.4375 0 0
0.03125 0 0
0.03125 0 0
0.03125 0 0
0.03125 0 0
0.03125 0 0
0.03125 0 0
0.03125 0 0
0.03125 0 0
0.4375 0 0
0.4375 0 0
0.25 0 0
0.25 0 0
0.25 0 0
0.3125 0 0
0.3125 0 0
0.3125 0 0
0.3125 0 0
0.3125 0 0
0.3125 0 0
0.3125 0 0
0.3125 0 0
0.3125 0 0
0.3125 0 0
0.3125 0 0
0.3125 0 0
0.3125 0 0
0.3125 0 0
0.3125 0 0
0.3125 0 0
0.3125 0 0
0.3125 0 0
0.3125 0 0
0.3125 0 0
0.3125 0 0
0.3125 0 0
0.3125 0 0
0.3125 0 0
0.3125 0 0
0.3125 0 0
0.4375 0 0
0.4375 0 0
0.4375 0 0
0 0 0
0 0 0
0 0 0
0 0 0
0.4375 0 0
0.4375 0 0
0.4375 0 0
0.4375 0 0
0.03125 0 0
0.03125 0 0
0.03125 0 0
0.03125 0 0
0.03125 0 0
0.03125 0 0
0.03125 0 0
0.03125 0 0
0.4375 0 0
0.4375 0 0
0.25 0 0
0.25 0 0
0.25 0 0
0.3125 0 0
0.3125 0 0
0.3125 0 0
0.3125 0 0
0.3125 0 0
0.3125 0 0
0.3125 0 0
0.3125 0 0
0.3125 0 0
0.3125 0 0
0.3125 0 0
0.3125 0 0
0.3125 0 0
0.3125 0 0
0.3125 0 0
0.3125 0 0
0.3125 0 0
0.3125 0 0
0.3125 0 0
0.3125 0 0
0.3125 0 0
0.3125 0 0
0.3125 0 0
0.3125 0 0
0.3125 0 0
0.3125 0 0
0.3125 0 0
0.4375 0 0
0.4375 0 0
0.4375 0 0
0 0 0
0 0 0
0 0 0
0 0 0
0.4375 0 0
0.4375 0 0
0.4375 0 0
0.4375 0 0
0.03125 0 0
0.03125 0 0
0.03125 0 0
0.03125 0 0
0.03125 0 0
0.03125 0 0
0.03125 0 0
0.03125 0 0
0.4375 0 0
0.4375 0 0
0.25 0 0
0.25 0 0
0.25 0 0
0.3125 0 0
0.3125 0 0
0.3125 0 0
0.3125 0 0
0.3125 0 0
0.3125 0 0
0.3125 0 0
0.3125 0 0
0.3125 0 0
0.3125 0 0
0.3125 0 0
0.3125 0 0
0.3125 0 0
0.3125 0 0
0.3125 0 0
0.3125 0 0
0.3125 0 0
0.3125 0 0
0.3125 0 0
0.3125 0 0
0.3125 0 0
0.3125 0 0
0.3125 0 0
0.3125 0 0
0.3125 0 0
0.3125 0 0
0.4375 0 0
0.4375 0 0
0.4375 0 0
0 0 0
0 0 0
0 0 0
0 0 0
0.4375 0 0
0.4375 0 0
0.4375 0 0
0.4375 0 0
0.03125 0 0
0.03125 0 0
0.03125 0 0
0.03125 0 0
0.03125 0 0
0.03125 0 0
0.03125 0 0
0.03125 0 0
0.4375 0 0
0.4375 0 0
0.25 0 0
0.25 0 0
0.25 0 0
0.3125 0 0
0.3125 0 0
0.3125 0 0
0.3125 0 0
0.3125 0 0
0.3125 0 0
0.3125 0 0
0.3125 0 0
0.3125 0 0
0.3125 0 0
0.3125 0 0
0.3125 0 0
0.3125 0 0
0.3125 0 0
0.3125 0 0
0.3125 0 0
0.3125 0 0
0.3125 0 0
0.3125 0 0
0.3125 0 0
0.3125 0 0
0.3125 0 0
0.3125 0 0
0.3125 0 0
0.3125 0 0
0.3125 0 0
0.3125 0 0
0.4375 0 0
0.4375 0 0
0.4375 0 0
0 0 0
0 0 0
0 0 0
0 0 0
0.4375 0 0
0.4375 0 0
0.4375 0 0
0.4375 0 0
0.03125 0 0
0.03125 0 0
0.03125 0 0
0.03125 0 0
0.03125 0 0
0.03125 0 0
0.03125 0 0
0.03125 0 0
0.4375 0 0
0.4375 0 0
0.25 0 0
0.25 0 0
0.25 0 0
0.3125 0 0
0.3125 0 0
0.3125 0 0
0.3125 0 0
0.3125 0 0
0.3125 0 0
0.3125 0 0
0.3125 0 0
0.3125 0 0
0.3125 0 0
0.3125 0 0
0.3125 0 0
0.3125 0 0
0.3125 0 0
0.3125 0 0
0.3125 0 0
0.3125 0 0
0.3125 0 0
0.3125 0 0
0.3125 0 0
0.3125 0 0
0.3125 0 0
0.3125 0 0
0.3125 0 0
0.3125 0 0
0.3125 0 0
0.4375 0 0
0.4375 0 0
0.4375 0 0
0 0 0
0 0 0
0 0 0
0 0 0
0.4375 0 0
0.4375 0 0
0.4375 0 0
0.4375 0 0
0.03125 0 0
0.03125 0 0
0.03125 0 0
0.03125 0 0
0.03125 0 0
0.03125 0 0
0.03125 0 0
0.03125 0 0
