# vtk DataFile Version 1.0
Cube
ASCII

DATASET POLYDATA
POINTS 464 float
11.762255 3.629430 7.813833
9.058728 4.572556 8.819530
12.028800 2.313680 4.429510
8.724900 5.229463 12.589122
10.372094 1.768917 0.063676
7.358300 2.014446 0.635688
8.508738 4.415926 14.886989
11.583663 1.420322 2.209265
7.848444 3.593885 2.099570
11.629826 1.525514 14.160827
12.660107 7.177607 8.235611
12.103303 8.532440 8.293703
11.658033 9.672093 8.321995
11.141340 11.017841 8.347137
10.695659 12.157469 8.374054
8.103035 1.104807 8.429180
3.098617 5.456101 8.918575
5.381970 2.782758 7.657002
1.853839 4.879420 8.685090
6.626722 3.359374 7.890710
2.880311 2.934889 7.778255
5.600253 5.304089 8.797277
4.184975 3.474972 7.996300
4.295612 4.763888 8.579278
10.413987 4.300603 10.688917
10.358688 3.805071 5.950603
10.360320 3.897420 12.088545
10.176226 3.446644 4.547827
11.155205 2.824924 12.536493
8.998443 3.798434 3.869168
10.995184 2.335922 13.823371
8.743382 3.269902 2.612907
10.065334 2.927021 14.687335
9.653521 2.376129 2.021209
9.226638 3.946762 14.224682
10.851935 2.072622 2.671957
9.372820 4.430692 12.929538
11.112685 2.601759 3.928303
8.266417 1.878932 0.056505
9.466923 1.900465 0.650794
5.848407 7.240769 9.678338
2.632045 0.998353 6.896909
6.725476 4.585993 8.445419
1.755087 3.652985 8.130114
13.925371 7.123323 7.680607
11.830743 6.181792 8.734563
8.929380 2.099845 7.922726
6.834374 1.158022 8.976745
9.313984 4.675083 10.124430
11.491932 3.542071 6.514699
11.475053 4.024612 10.003892
9.330864 4.192541 6.635236
3.081767 6.688521 9.475411
5.398769 1.550209 7.100617
7.752753 2.681932 7.558056
13.000560 5.556862 9.017744
12.064146 2.223590 11.726454
8.089977 4.647384 4.415947
13.628479 4.442099 23.883441
10.924951 5.385225 24.889139
13.895024 3.126350 20.499118
10.591124 6.042133 28.658730
12.238318 2.581587 16.133285
9.224524 2.827116 16.705296
10.374961 5.228596 30.956597
13.449887 2.232991 18.278873
9.714668 4.406555 18.169178
13.496050 2.338184 30.230435
14.526331 7.990277 24.305220
13.969527 9.345109 24.363311
13.524257 10.484762 24.391603
13.007564 11.830510 24.416745
12.561883 12.970138 24.443662
9.969259 1.917476 24.498788
4.964841 6.268771 24.988183
7.248193 3.595428 23.726610
3.720063 5.692090 24.754699
8.492946 4.172044 23.960318
4.746535 3.747558 23.847863
7.466477 6.116759 24.866885
6.051198 4.287641 24.065909
6.161835 5.576557 24.648886
12.280211 5.113273 26.758525
12.224912 4.617741 22.020211
12.226544 4.710090 28.158153
12.042450 4.259314 20.617435
13.021429 3.637593 28.606101
10.864667 4.611104 19.938776
12.861408 3.148592 29.892979
10.609606 4.082572 18.682515
11.931558 3.739690 30.756943
11.519745 3.188799 18.090817
11.092862 4.759431 30.294290
12.718159 2.885291 18.741565
11.239044 5.243361 28.999146
12.978909 3.414429 19.997911
10.132641 2.691601 16.126113
11.333147 2.713135 16.720402
7.714631 8.053439 25.747946
4.498269 1.811023 22.966517
8.591700 5.398662 24.515028
3.621311 4.465655 24.199723
15.791595 7.935992 23.750215
13.696967 6.994462 24.804171
10.795604 2.912515 23.992334
8.700598 1.970691 25.046353
11.180208 5.487752 26.194038
13.358156 4.354741 22.584307
13.341277 4.837282 26.073500
11.197088 5.005211 22.704844
4.947991 7.501190 25.545020
7.264993 2.362879 23.170225
9.618977 3.494602 23.627664
14.866784 6.369532 25.087352
13.930369 3.036260 27.796062
9.956201 5.460053 20.485555
13.797007 16.036437 7.813833
11.093479 16.979563 8.819530
14.063551 14.720688 4.429510
10.759652 17.636470 12.589122
12.406846 14.175925 0.063676
9.393051 14.421453 0.635688
10.543489 16.822933 14.886989
13.618415 13.827329 2.209265
9.883196 16.000893 2.099570
13.664577 13.932521 14.160827
14.694858 19.584615 8.235611
14.138054 20.939447 8.293703
13.692785 22.079100 8.321995
13.176091 23.424848 8.347137
12.730411 24.564476 8.374054
10.137787 13.511814 8.429180
5.133368 17.863108 8.918575
7.416721 15.189765 7.657002
3.888591 17.286427 8.685090
8.661474 15.766381 7.890710
4.915063 15.341896 7.778255
7.635005 17.711096 8.797277
6.219726 15.881979 7.996300
6.330363 17.170895 8.579278
12.448739 16.707610 10.688917
12.393439 16.212078 5.950603
12.395071 16.304428 12.088545
12.210978 15.853651 4.547827
13.189957 15.231931 12.536493
11.033195 16.205441 3.869168
13.029936 14.742929 13.823371
10.778134 15.676910 2.612907
12.100086 15.334028 14.687335
11.688273 14.783136 2.021209
11.261390 16.353769 14.224682
12.886686 14.479629 2.671957
11.407572 16.837699 12.929538
13.147437 15.008767 3.928303
10.301168 14.285939 0.056505
11.501675 14.307472 0.650794
7.883158 19.647777 9.678338
4.666796 13.405360 6.896909
8.760228 16.993000 8.445419
3.789838 16.059992 8.130114
15.960122 19.530330 7.680607
13.865494 18.588799 8.734563
10.964132 14.506852 7.922726
8.869126 13.565029 8.976745
11.348736 17.082090 10.124430
13.526684 15.949078 6.514699
13.509804 16.431620 10.003892
11.365615 16.599548 6.635236
5.116518 19.095528 9.475411
7.433521 13.957216 7.100617
9.787505 15.088939 7.558056
15.035311 17.963870 9.017744
14.098897 14.630598 11.726454
10.124728 17.054391 4.415947
15.663231 16.849107 23.883441
12.959703 17.792233 24.889139
15.929775 15.533357 20.499118
12.625876 18.449140 28.658730
14.273070 14.988594 16.133285
11.259275 15.234123 16.705296
12.409713 17.635603 30.956597
15.484639 14.639999 18.278873
11.749420 16.813562 18.169178
15.530801 14.745191 30.230435
16.561082 20.397284 24.305220
16.004278 21.752117 24.363311
15.559009 22.891770 24.391603
15.042315 24.237518 24.416745
14.596635 25.377146 24.443662
12.004011 14.324484 24.498788
6.999592 18.675778 24.988183
9.282945 16.002435 23.726610
5.754815 18.099097 24.754699
10.527698 16.579051 23.960318
6.781287 16.154566 23.847863
9.501229 18.523766 24.866885
8.085950 16.694649 24.065909
8.196587 17.983565 24.648886
14.314963 17.520280 26.758525
14.259663 17.024748 22.020211
14.261295 17.117097 28.158153
14.077202 16.666321 20.617435
15.056181 16.044601 28.606101
12.899419 17.018111 19.938776
14.896160 15.555599 29.892979
12.644358 16.489579 18.682515
13.966310 16.146697 30.756943
13.554496 15.595806 18.090817
13.127614 17.166438 30.294290
14.752910 15.292299 18.741565
13.273796 17.650369 28.999146
15.013661 15.821436 19.997911
12.167392 15.098609 16.126113
13.367899 15.120142 16.720402
9.749382 20.460446 25.747946
6.533020 14.218030 22.966517
10.626452 17.805669 24.515028
5.656062 16.872662 24.199723
17.826346 20.342999 23.750215
15.731718 19.401469 24.804171
12.830356 15.319522 23.992334
10.735350 14.377698 25.046353
13.214960 17.894759 26.194038
15.392908 16.761748 22.584307
15.376028 17.244289 26.073500
13.231839 17.412218 22.704844
6.982742 19.908198 25.545020
9.299745 14.769886 23.170225
11.653729 15.901609 23.627664
16.901535 18.776539 25.087352
15.965121 15.443267 27.796062
11.990952 17.867061 20.485555
24.035005 3.629430 7.813833
21.331478 4.572556 8.819530
24.301550 2.313680 4.429510
20.997650 5.229463 12.589122
22.644844 1.768917 0.063676
19.631050 2.014446 0.635688
20.781488 4.415926 14.886989
23.856413 1.420322 2.209265
20.121194 3.593885 2.099570
23.902576 1.525514 14.160827
24.932857 7.177607 8.235611
24.376053 8.532440 8.293703
23.930783 9.672093 8.321995
23.414090 11.017841 8.347137
22.968409 12.157469 8.374054
20.375785 1.104807 8.429180
15.371367 5.456101 8.918575
17.654720 2.782758 7.657002
14.126589 4.879420 8.685090
18.899472 3.359374 7.890710
15.153061 2.934889 7.778255
17.873003 5.304089 8.797277
16.457725 3.474972 7.996300
16.568362 4.763888 8.579278
22.686737 4.300603 10.688917
22.631438 3.805071 5.950603
22.633070 3.897420 12.088545
22.448976 3.446644 4.547827
23.427955 2.824924 12.536493
21.271193 3.798434 3.869168
23.267934 2.335922 13.823371
21.016132 3.269902 2.612907
22.338084 2.927021 14.687335
21.926271 2.376129 2.021209
21.499388 3.946762 14.224682
23.124685 2.072622 2.671957
21.645570 4.430692 12.929538
23.385435 2.601759 3.928303
20.539167 1.878932 0.056505
21.739673 1.900465 0.650794
18.121157 7.240769 9.678338
14.904795 0.998353 6.896909
18.998226 4.585993 8.445419
14.027837 3.652985 8.130114
26.198121 7.123323 7.680607
24.103493 6.181792 8.734563
21.202130 2.099845 7.922726
19.107124 1.158022 8.976745
21.586734 4.675083 10.124430
23.764682 3.542071 6.514699
23.747803 4.024612 10.003892
21.603614 4.192541 6.635236
15.354517 6.688521 9.475411
17.671519 1.550209 7.100617
20.025503 2.681932 7.558056
25.273310 5.556862 9.017744
24.336896 2.223590 11.726454
20.362727 4.647384 4.415947
25.901229 4.442099 23.883441
23.197701 5.385225 24.889139
26.167774 3.126350 20.499118
22.863874 6.042133 28.658730
24.511068 2.581587 16.133285
21.497274 2.827116 16.705296
22.647711 5.228596 30.956597
25.722637 2.232991 18.278873
21.987418 4.406555 18.169178
25.768800 2.338184 30.230435
26.799081 7.990277 24.305220
26.242277 9.345109 24.363311
25.797007 10.484762 24.391603
25.280314 11.830510 24.416745
24.834633 12.970138 24.443662
22.242009 1.917476 24.498788
17.237591 6.268771 24.988183
19.520943 3.595428 23.726610
15.992813 5.692090 24.754699
20.765696 4.172044 23.960318
17.019285 3.747558 23.847863
19.739227 6.116759 24.866885
18.323948 4.287641 24.065909
18.434585 5.576557 24.648886
24.552961 5.113273 26.758525
24.497662 4.617741 22.020211
24.499294 4.710090 28.158153
24.315200 4.259314 20.617435
25.294179 3.637593 28.606101
23.137417 4.611104 19.938776
25.134158 3.148592 29.892979
22.882356 4.082572 18.682515
24.204308 3.739690 30.756943
23.792495 3.188799 18.090817
23.365612 4.759431 30.294290
24.990909 2.885291 18.741565
23.511794 5.243361 28.999146
25.251659 3.414429 19.997911
22.405391 2.691601 16.126113
23.605897 2.713135 16.720402
19.987381 8.053439 25.747946
16.771019 1.811023 22.966517
20.864450 5.398662 24.515028
15.894061 4.465655 24.199723
28.064345 7.935992 23.750215
25.969717 6.994462 24.804171
23.068354 2.912515 23.992334
20.973348 1.970691 25.046353
23.452958 5.487752 26.194038
25.630906 4.354741 22.584307
25.614027 4.837282 26.073500
23.469838 5.005211 22.704844
17.220741 7.501190 25.545020
19.537743 2.362879 23.170225
21.891727 3.494602 23.627664
27.139534 6.369532 25.087352
26.203119 3.036260 27.796062
22.228951 5.460053 20.485555
26.069757 16.036437 7.813833
23.366229 16.979563 8.819530
26.336301 14.720688 4.429510
23.032402 17.636470 12.589122
24.679596 14.175925 0.063676
21.665801 14.421453 0.635688
22.816239 16.822933 14.886989
25.891165 13.827329 2.209265
22.155946 16.000893 2.099570
25.937327 13.932521 14.160827
26.967608 19.584615 8.235611
26.410804 20.939447 8.293703
25.965535 22.079100 8.321995
25.448841 23.424848 8.347137
25.003161 24.564476 8.374054
22.410537 13.511814 8.429180
17.406118 17.863108 8.918575
19.689471 15.189765 7.657002
16.161341 17.286427 8.685090
20.934224 15.766381 7.890710
17.187813 15.341896 7.778255
19.907755 17.711096 8.797277
18.492476 15.881979 7.996300
18.603113 17.170895 8.579278
24.721489 16.707610 10.688917
24.666189 16.212078 5.950603
24.667821 16.304428 12.088545
24.483728 15.853651 4.547827
25.462707 15.231931 12.536493
23.305945 16.205441 3.869168
25.302686 14.742929 13.823371
23.050884 15.676910 2.612907
24.372836 15.334028 14.687335
23.961023 14.783136 2.021209
23.534140 16.353769 14.224682
25.159436 14.479629 2.671957
23.680322 16.837699 12.929538
25.420187 15.008767 3.928303
22.573918 14.285939 0.056505
23.774425 14.307472 0.650794
20.155908 19.647777 9.678338
16.939546 13.405360 6.896909
21.032978 16.993000 8.445419
16.062588 16.059992 8.130114
28.232872 19.530330 7.680607
26.138244 18.588799 8.734563
23.236882 14.506852 7.922726
21.141876 13.565029 8.976745
23.621486 17.082090 10.124430
25.799434 15.949078 6.514699
25.782554 16.431620 10.003892
23.638365 16.599548 6.635236
17.389268 19.095528 9.475411
19.706271 13.957216 7.100617
22.060255 15.088939 7.558056
27.308061 17.963870 9.017744
26.371647 14.630598 11.726454
22.397478 17.054391 4.415947
27.935981 16.849107 23.883441
25.232453 17.792233 24.889139
28.202525 15.533357 20.499118
24.898626 18.449140 28.658730
26.545820 14.988594 16.133285
23.532025 15.234123 16.705296
24.682463 17.635603 30.956597
27.757389 14.639999 18.278873
24.022170 16.813562 18.169178
27.803551 14.745191 30.230435
28.833832 20.397284 24.305220
28.277028 21.752117 24.363311
27.831759 22.891770 24.391603
27.315065 24.237518 24.416745
26.869385 25.377146 24.443662
24.276761 14.324484 24.498788
19.272342 18.675778 24.988183
21.555695 16.002435 23.726610
18.027565 18.099097 24.754699
22.800448 16.579051 23.960318
19.054037 16.154566 23.847863
21.773979 18.523766 24.866885
20.358700 16.694649 24.065909
20.469337 17.983565 24.648886
26.587713 17.520280 26.758525
26.532413 17.024748 22.020211
26.534045 17.117097 28.158153
26.349952 16.666321 20.617435
27.328931 16.044601 28.606101
25.172169 17.018111 19.938776
27.168910 15.555599 29.892979
24.917108 16.489579 18.682515
26.239060 16.146697 30.756943
25.827246 15.595806 18.090817
25.400364 17.166438 30.294290
27.025660 15.292299 18.741565
25.546546 17.650369 28.999146
27.286411 15.821436 19.997911
24.440142 15.098609 16.126113
25.640649 15.120142 16.720402
22.022132 20.460446 25.747946
18.805770 14.218030 22.966517
22.899202 17.805669 24.515028
17.928812 16.872662 24.199723
30.099096 20.342999 23.750215
28.004468 19.401469 24.804171
25.103106 15.319522 23.992334
23.008100 14.377698 25.046353
25.487710 17.894759 26.194038
27.665658 16.761748 22.584307
27.648778 17.244289 26.073500
25.504589 17.412218 22.704844
19.255492 19.908198 25.545020
21.572495 14.769886 23.170225
23.926479 15.901609 23.627664
29.174285 18.776539 25.087352
28.237871 15.443267 27.796062
24.263702 17.867061 20.485555
POINT_DATA 464
SCALARS my_scalars float
LOOKUP_TABLE default
1.39
1.39
1.09
1.09
1.09
1.09
1.09
1.09
1.09
1.09
1.7
1.7
1.7
1.7
1.7
1.7
1.7
1.7
1.7
1.7
1.7
1.7
1.7
1.7
1.7
1.7
1.7
1.7
1.7
1.7
1.7
1.7
1.7
1.7
1.7
1.7
1.7
1.7
1.7
1.7
1.98
1.98
1.55
1.55
1.52
1.52
1.52
1.52
1.52
1.52
1.52
1.52
1.47
1.47
1.47
1.47
1.47
1.47
1.39
1.39
1.09
1.09
1.09
1.09
1.09
1.09
1.09
1.09
1.7
1.7
1.7
1.7
1.7
1.7
1.7
1.7
1.7
1.7
1.7
1.7
1.7
1.7
1.7
1.7
1.7
1.7
1.7
1.7
1.7
1.7
1.7
1.7
1.7
1.7
1.7
1.7
1.7
1.7
1.98
1.98
1.55
1.55
1.52
1.52
1.52
1.52
1.52
1.52
1.52
1.52
1.47
1.47
1.47
1.47
1.47
1.47
1.39
1.39
1.09
1.09
1.09
1.09
1.09
1.09
1.09
1.09
1.7
1.7
1.7
1.7
1.7
1.7
1.7
1.7
1.7
1.7
1.7
1.7
1.7
1.7
1.7
1.7
1.7
1.7
1.7
1.7
1.7
1.7
1.7
1.7
1.7
1.7
1.7
1.7
1.7
1.7
1.98
1.98
1.55
1.55
1.52
1.52
1.52
1.52
1.52
1.52
1.52
1.52
1.47
1.47
1.47
1.47
1.47
1.47
1.39
1.39
1.09
1.09
1.09
1.09
1.09
1.09
1.09
1.09
1.7
1.7
1.7
1.7
1.7
1.7
1.7
1.7
1.7
1.7
1.7
1.7
1.7
1.7
1.7
1.7
1.7
1.7
1.7
1.7
1.7
1.7
1.7
1.7
1.7
1.7
1.7
1.7
1.7
1.7
1.98
1.98
1.55
1.55
1.52
1.52
1.52
1.52
1.52
1.52
1.52
1.52
1.47
1.47
1.47
1.47
1.47
1.47
1.39
1.39
1.09
1.09
1.09
1.09
1.09
1.09
1.09
1.09
1.7
1.7
1.7
1.7
1.7
1.7
1.7
1.7
1.7
1.7
1.7
1.7
1.7
1.7
1.7
1.7
1.7
1.7
1.7
1.7
1.7
1.7
1.7
1.7
1.7
1.7
1.7
1.7
1.7
1.7
1.98
1.98
1.55
1.55
1.52
1.52
1.52
1.52
1.52
1.52
1.52
1.52
1.47
1.47
1.47
1.47
1.47
1.47
1.39
1.39
1.09
1.09
1.09
1.09
1.09
1.09
1.09
1.09
1.7
1.7
1.7
1.7
1.7
1.7
1.7
1.7
1.7
1.7
1.7
1.7
1.7
1.7
1.7
1.7
1.7
1.7
1.7
1.7
1.7
1.7
1.7
1.7
1.7
1.7
1.7
1.7
1.7
1.7
1.98
1.98
1.55
1.55
1.52
1.52
1.52
1.52
1.52
1.52
1.52
1.52
1.47
1.47
1.47
1.47
1.47
1.47
1.39
1.39
1.09
1.09
1.09
1.09
1.09
1.09
1.09
1.09
1.7
1.7
1.7
1.7
1.7
1.7
1.7
1.7
1.7
1.7
1.7
1.7
1.7
1.7
1.7
1.7
1.7
1.7
1.7
1.7
1.7
1.7
1.7
1.7
1.7
1.7
1.7
1.7
1.7
1.7
1.98
1.98
1.55
1.55
1.52
1.52
1.52
1.52
1.52
1.52
1.52
1.52
1.47
1.47
1.47
1.47
1.47
1.47
1.39
1.39
1.09
1.09
1.09
1.09
1.09
1.09
1.09
1.09
1.7
1.7
1.7
1.7
1.7
1.7
1.7
1.7
1.7
1.7
1.7
1.7
1.7
1.7
1.7
1.7
1.7
1.7
1.7
1.7
1.7
1.7
1.7
1.7
1.7
1.7
1.7
1.7
1.7
1.7
1.98
1.98
1.55
1.55
1.52
1.52
1.52
1.52
1.52
1.52
1.52
1.52
1.47
1.47
1.47
1.47
1.47
1.47
VECTORS vectors float
0.4375 0 0
0.4375 0 0
0.25 0 0
0.25 0 0
0.25 0 0
0.25 0 0
0.25 0 0
0.25 0 0
0.25 0 0
0.25 0 0
0.3125 0 0
0.3125 0 0
0.3125 0 0
0.3125 0 0
0.3125 0 0
0.3125 0 0
0.3125 0 0
0.3125 0 0
0.3125 0 0
0.3125 0 0
0.3125 0 0
0.3125 0 0
0.3125 0 0
0.3125 0 0
0.3125 0 0
0.3125 0 0
0.3125 0 0
0.3125 0 0
0.3125 0 0
0.3125 0 0
0.3125 0 0
0.3125 0 0
0.3125 0 0
0.3125 0 0
0.3125 0 0
0.3125 0 0
0.3125 0 0
0.3125 0 0
0.3125 0 0
0.3125 0 0
0.4375 0 0
0.4375 0 0
0 0 0
0 0 0
0.03125 0 0
0.03125 0 0
0.03125 0 0
0.03125 0 0
0.03125 0 0
0.03125 0 0
0.03125 0 0
0.03125 0 0
0.4375 0 0
0.4375 0 0
0.4375 0 0
0.4375 0 0
0.4375 0 0
0.4375 0 0
0.4375 0 0
0.4375 0 0
0.25 0 0
0.25 0 0
0.25 0 0
0.25 0 0
0.25 0 0
0.25 0 0
0.25 0 0
0.25 0 0
0.3125 0 0
0.3125 0 0
0.3125 0 0
0.3125 0 0
0.3125 0 0
0.3125 0 0
0.3125 0 0
0.3125 0 0
0.3125 0 0
0.3125 0 0
0.3125 0 0
0.3125 0 0
0.3125 0 0
0.3125 0 0
0.3125 0 0
0.3125 0 0
0.3125 0 0
0.3125 0 0
0.3125 0 0
0.3125 0 0
0.3125 0 0
0.3125 0 0
0.3125 0 0
0.3125 0 0
0.3125 0 0
0.3125 0 0
0.3125 0 0
0.3125 0 0
0.3125 0 0
0.3125 0 0
0.4375 0 0
0.4375 0 0
0 0 0
0 0 0
0.03125 0 0
0.03125 0 0
0.03125 0 0
0.03125 0 0
0.03125 0 0
0.03125 0 0
0.03125 0 0
0.03125 0 0
0.4375 0 0
0.4375 0 0
0.4375 0 0
0.4375 0 0
0.4375 0 0
0.4375 0 0
0.4375 0 0
0.4375 0 0
0.25 0 0
0.25 0 0
0.25 0 0
0.25 0 0
0.25 0 0
0.25 0 0
0.25 0 0
0.25 0 0
0.3125 0 0
0.3125 0 0
0.3125 0 0
0.3125 0 0
0.3125 0 0
0.3125 0 0
0.3125 0 0
0.3125 0 0
0.3125 0 0
0.3125 0 0
0.3125 0 0
0.3125 0 0
0.3125 0 0
0.3125 0 0
0.3125 0 0
0.3125 0 0
0.3125 0 0
0.3125 0 0
0.3125 0 0
0.3125 0 0
0.3125 0 0
0.3125 0 0
0.3125 0 0
0.3125 0 0
0.3125 0 0
0.3125 0 0
0.3125 0 0
0.3125 0 0
0.3125 0 0
0.3125 0 0
0.4375 0 0
0.4375 0 0
0 0 0
0 0 0
0.03125 0 0
0.03125 0 0
0.03125 0 0
0.03125 0 0
0.03125 0 0
0.03125 0 0
0.03125 0 0
0.03125 0 0
0.4375 0 0
0.4375 0 0
0.4375 0 0
0.4375 0 0
0.4375 0 0
0.4375 0 0
0.4375 0 0
0.4375 0 0
0.25 0 0
0.25 0 0
0.25 0 0
0.25 0 0
0.25 0 0
0.25 0 0
0.25 0 0
0.25 0 0
0.3125 0 0
0.3125 0 0
0.3125 0 0
0.3125 0 0
0.3125 0 0
0.3125 0 0
0.3125 0 0
0.3125 0 0
0.3125 0 0
0.3125 0 0
0.3125 0 0
0.3125 0 0
0.3125 0 0
0.3125 0 0
0.3125 0 0
0.3125 0 0
0.3125 0 0
0.3125 0 0
0.3125 0 0
0.3125 0 0
0.3125 0 0
0.3125 0 0
0.3125 0 0
0.3125 0 0
0.3125 0 0
0.3125 0 0
0.3125 0 0
0.3125 0 0
0.3125 0 0
0.3125 0 0
0.4375 0 0
0.4375 0 0
0 0 0
0 0 0
0.03125 0 0
0.03125 0 0
0.03125 0 0
0.03125 0 0
0.03125 0 0
0.03125 0 0
0.03125 0 0
0.03125 0 0
0.4375 0 0
0.4375 0 0
0.4375 0 0
0.4375 0 0
0.4375 0 0
0.4375 0 0
0.4375 0 0
0.4375 0 0
0.25 0 0
0.25 0 0
0.25 0 0
0.25 0 0
0.25 0 0
0.25 0 0
0.25 0 0
0.25 0 0
0.3125 0 0
0.3125 0 0
0.3125 0 0
0.3125 0 0
0.3125 0 0
0.3125 0 0
0.3125 0 0
0.3125 0 0
0.3125 0 0
0.3125 0 0
0.3125 0 0
0.3125 0 0
0.3125 0 0
0.3125 0 0
0.3125 0 0
0.3125 0 0
0.3125 0 0
0.3125 0 0
0.3125 0 0
0.3125 0 0
0.3125 0 0
0.3125 0 0
0.3125 0 0
0.3125 0 0
0.3125 0 0
0.3125 0 0
0.3125 0 0
0.3125 0 0
0.3125 0 0
0.3125 0 0
0.4375 0 0
0.4375 0 0
0 0 0
0 0 0
0.03125 0 0
0.03125 0 0
0.03125 0 0
0.03125 0 0
0.03125 0 0
0.03125 0 0
0.03125 0 0
0.03125 0 0
0.4375 0 0
0.4375 0 0
0.4375 0 0
0.4375 0 0
0.4375 0 0
0.4375 0 0
0.4375 0 0
0.4375 0 0
0.25 0 0
0.25 0 0
0.25 0 0
0.25 0 0
0.25 0 0
0.25 0 0
0.25 0 0
0.25 0 0
0.3125 0 0
0.3125 0 0
0.3125 0 0
0.3125 0 0
0.3125 0 0
0.3125 0 0
0.3125 0 0
0.3125 0 0
0.3125 0 0
0.3125 0 0
0.3125 0 0
0.3125 0 0
0.3125 0 0
0.3125 0 0
0.3125 0 0
0.3125 0 0
0.3125 0 0
0.3125 0 0
0.3125 0 0
0.3125 0 0
0.3125 0 0
0.3125 0 0
0.3125 0 0
0.3125 0 0
0.3125 0 0
0.3125 0 0
0.3125 0 0
0.3125 0 0
0.3125 0 0
0.3125 0 0
0.4375 0 0
0.4375 0 0
0 0 0
0 0 0
0.03125 0 0
0.03125 0 0
0.03125 0 0
0.03125 0 0
0.03125 0 0
0.03125 0 0
0.03125 0 0
0.03125 0 0
0.4375 0 0
0.4375 0 0
0.4375 0 0
0.4375 0 0
0.4375 0 0
0.4375 0 0
0.4375 0 0
0.4375 0 0
0.25 0 0
0.25 0 0
0.25 0 0
0.25 0 0
0.25 0 0
0.25 0 0
0.25 0 0
0.25 0 0
0.3125 0 0
0.3125 0 0
0.3125 0 0
0.3125 0 0
0.3125 0 0
0.3125 0 0
0.3125 0 0
0.3125 0 0
0.3125 0 0
0.3125 0 0
0.3125 0 0
0.3125 0 0
0.3125 0 0
0.3125 0 0
0.3125 0 0
0.3125 0 0
0.3125 0 0
0.3125 0 0
0.3125 0 0
0.3125 0 0
0.3125 0 0
0.3125 0 0
0.3125 0 0
0.3125 0 0
0.3125 0 0
0.3125 0 0
0.3125 0 0
0.3125 0 0
0.3125 0 0
0.3125 0 0
0.4375 0 0
0.4375 0 0
0 0 0
0 0 0
0.03125 0 0
0.03125 0 0
0.03125 0 0
0.03125 0 0
0.03125 0 0
0.03125 0 0
0.03125 0 0
0.03125 0 0
0.4375 0 0
0.4375 0 0
0.4375 0 0
0.4375 0 0
0.4375 0 0
0.4375 0 0
0.4375 0 0
0.4375 0 0
0.25 0 0
0.25 0 0
0.25 0 0
0.25 0 0
0.25 0 0
0.25 0 0
0.25 0 0
0.25 0 0
0.3125 0 0
0.3125 0 0
0.3125 0 0
0.3125 0 0
0.3125 0 0
0.3125 0 0
0.3125 0 0
0.3125 0 0
0.3125 0 0
0.3125 0 0
0.3125 0 0
0.3125 0 0
0.3125 0 0
0.3125 0 0
0.3125 0 0
0.3125 0 0
0.3125 0 0
0.3125 0 0
0.3125 0 0
0.3125 0 0
0.3125 0 0
0.3125 0 0
0.3125 0 0
0.3125 0 0
0.3125 0 0
0.3125 0 0
0.3125 0 0
0.3125 0 0
0.3125 0 0
0.3125 0 0
0.4375 0 0
0.4375 0 0
0 0 0
0 0 0
0.03125 0 0
0.03125 0 0
0.03125 0 0
0.03125 0 0
0.03125 0 0
0.03125 0 0
0.03125 0 0
0.03125 0 0
0.4375 0 0
0.4375 0 0
0.4375 0 0
0.4375 0 0
0.4375 0 0
0.4375 0 0
