# vtk DataFile Version 1.0
Cube
ASCII

DATASET POLYDATA
POINTS 372 float
3.067462 0.248554 5.269692
1.606163 8.140371 5.336632
0.052940 3.952716 4.583650
2.469813 5.609990 5.542869
3.682386 3.877776 5.341429
0.700866 8.462740 9.735865
4.487500 0.710097 11.571122
0.772506 7.613563 1.367396
3.912641 10.528598 0.804867
4.012916 0.731206 9.172645
0.240583 7.579556 11.922254
1.036159 4.141853 5.005827
1.542701 5.376434 5.031313
1.749058 3.014719 5.591697
3.094660 3.034475 5.683944
0.823224 6.484507 4.467851
3.858390 1.911578 6.155346
6.552783 9.276587 5.292807
7.935909 9.474005 5.921811
2.537740 9.213791 2.644780
2.761248 9.912030 12.007629
1.988880 9.860807 7.898074
2.213612 9.945719 9.307947
2.355731 9.093979 1.232410
1.014987 8.226935 12.317860
1.372317 8.239937 0.717656
3.132051 9.893194 0.398142
1.746474 9.076661 11.485738
1.477229 9.105183 10.138673
3.435963 0.082219 9.820723
3.713960 0.061702 11.175853
0.637348 1.560877 6.202522
7.997503 10.707725 7.375080
5.810514 7.510142 5.386766
8.982738 7.458976 4.307015
6.805937 1.253413 4.792616
5.739746 10.278965 5.042394
9.037288 8.827139 5.603654
1.306850 7.650020 4.622567
9.984143 6.296057 3.905538
5.013581 2.099214 6.673770
3.399294 0.745251 5.956740
3.063375 10.302074 3.104548
2.152459 8.240891 3.394654
2.595018 0.129519 7.148397
1.451163 8.779814 7.438503
2.956917 0.246358 18.229591
1.495618 8.138176 18.296530
-0.057605 3.950520 17.543548
2.359267 5.607794 18.502768
3.571841 3.875580 18.301327
0.590320 8.460544 22.695764
4.376954 0.707901 24.531020
0.661961 7.611367 14.327294
3.802095 10.526402 13.764766
3.902370 0.729010 22.132543
0.130038 7.577360 24.882152
0.925614 4.139657 17.965726
1.432156 5.374238 17.991211
1.638512 3.012523 18.551596
2.984114 3.032279 18.643843
0.712678 6.482311 17.427750
3.747845 1.909382 19.115244
6.442238 9.274391 18.252705
7.825364 9.471809 18.881710
2.427194 9.211595 15.604678
2.650703 9.909834 24.967527
1.878335 9.858612 20.857973
2.103066 9.943523 22.267845
2.245186 9.091783 14.192308
0.904441 8.224739 25.277758
1.261771 8.237741 13.677554
3.021506 9.890998 13.358040
1.635928 9.074465 24.445636
1.366684 9.102987 23.098571
3.325417 0.080023 22.780622
3.603415 0.059506 24.135751
0.526803 1.558682 19.162420
7.886958 10.705529 20.334978
5.699969 7.507946 18.346665
8.872193 7.456780 17.266913
6.695391 1.251217 17.752515
5.629201 10.276769 18.002293
8.926742 8.824943 18.563553
1.196305 7.647824 17.582465
9.873598 6.293861 16.865437
4.903035 2.097018 19.633669
3.288749 0.743055 18.916638
2.952829 10.299878 16.064447
2.041914 8.238695 16.354552
2.484473 0.127323 20.108295
1.340618 8.777618 20.398402
2.834523 10.960031 5.269692
1.373224 18.851849 5.336632
-0.179999 14.664193 4.583650
2.236873 16.321468 5.542869
3.449447 14.589253 5.341429
0.467926 19.174217 9.735865
4.254560 11.421574 11.571122
0.539567 18.325040 1.367396
3.679701 21.240075 0.804867
3.779976 11.442683 9.172645
0.007643 18.291033 11.922254
0.803220 14.853331 5.005827
1.309761 16.087912 5.031313
1.516118 13.726196 5.591697
2.861720 13.745952 5.683944
0.590284 17.195985 4.467851
3.625451 12.623055 6.155346
6.319843 19.988064 5.292807
7.702970 20.185482 5.921811
2.304800 19.925269 2.644780
2.528309 20.623508 12.007629
1.755940 20.572285 7.898074
1.980672 20.657196 9.307947
2.122792 19.805457 1.232410
0.782047 18.938413 12.317860
1.139377 18.951414 0.717656
2.899112 20.604671 0.398142
1.513534 19.788138 11.485738
1.244290 19.816660 10.138673
3.203023 10.793696 9.820723
3.481021 10.773179 11.175853
0.404408 12.272355 6.202522
8.230443 -0.003753 7.375080
7.764563 21.419202 7.375080
5.577574 18.221620 5.386766
8.749798 18.170453 4.307015
6.572997 11.964890 4.792616
5.506807 20.990443 5.042394
8.804348 19.538616 5.603654
1.073910 18.361498 4.622567
9.751203 17.007534 3.905538
4.780641 12.810691 6.673770
3.166354 11.456729 5.956740
2.830435 21.013551 3.104548
1.919520 18.952369 3.394654
2.362079 10.840996 7.148397
1.218224 19.491291 7.438503
2.723977 10.957835 18.229591
1.262678 18.849653 18.296530
-0.290545 14.661997 17.543548
2.126327 16.319272 18.502768
3.338901 14.587058 18.301327
0.357381 19.172021 22.695764
4.144014 11.419378 24.531020
0.429021 18.322844 14.327294
3.569156 21.237880 13.764766
3.669431 11.440487 22.132543
-0.102902 18.288837 24.882152
0.692674 14.851135 17.965726
1.199216 16.085716 17.991211
1.405572 13.724000 18.551596
2.751174 13.743757 18.643843
0.479739 17.193789 17.427750
3.514905 12.620859 19.115244
6.209298 19.985868 18.252705
7.592424 20.183286 18.881710
2.194255 19.923073 15.604678
2.417763 20.621312 24.967527
1.645395 20.570089 20.857973
1.870126 20.655001 22.267845
2.012246 19.803261 14.192308
0.671502 18.936217 25.277758
1.028832 18.949219 13.677554
2.788566 20.602475 13.358040
1.402988 19.785943 24.445636
1.133744 19.814464 23.098571
3.092478 10.791500 22.780622
3.370475 10.770983 24.135751
0.293863 12.270159 19.162420
8.119897 -0.005949 20.334978
7.654018 21.417006 20.334978
5.467029 18.219424 18.346665
8.639253 18.168257 17.266913
6.462452 11.962694 17.752515
5.396261 20.988247 18.002293
8.693803 19.536420 18.563553
0.963365 18.359302 17.582465
9.640658 17.005338 16.865437
4.670096 12.808495 19.633669
3.055809 11.454533 18.916638
2.719890 21.011356 16.064447
1.808974 18.950173 16.354552
2.251533 10.838800 20.108295
1.107678 19.489096 20.398402
13.359042 0.248554 5.269692
11.897743 8.140371 5.336632
10.344520 3.952716 4.583650
12.761393 5.609990 5.542869
13.973966 3.877776 5.341429
10.992446 8.462740 9.735865
14.779080 0.710097 11.571122
11.064086 7.613563 1.367396
14.204221 10.528598 0.804867
14.304496 0.731206 9.172645
10.532163 7.579556 11.922254
11.327739 4.141853 5.005827
11.834281 5.376434 5.031313
12.040638 3.014719 5.591697
13.386240 3.034475 5.683944
11.114804 6.484507 4.467851
14.149970 1.911578 6.155346
16.844363 9.276587 5.292807
18.227489 9.474005 5.921811
12.829320 9.213791 2.644780
13.052828 9.912030 12.007629
12.280460 9.860807 7.898074
12.505192 9.945719 9.307947
12.647311 9.093979 1.232410
11.306567 8.226935 12.317860
11.663897 8.239937 0.717656
13.423631 9.893194 0.398142
12.038054 9.076661 11.485738
11.768809 9.105183 10.138673
13.727543 0.082219 9.820723
14.005540 0.061702 11.175853
10.928928 1.560877 6.202522
18.289083 10.707725 7.375080
16.102094 7.510142 5.386766
19.274318 7.458976 4.307015
17.097517 1.253413 4.792616
16.031326 10.278965 5.042394
19.328868 8.827139 5.603654
11.598430 7.650020 4.622567
20.275723 6.296057 3.905538
15.305161 2.099214 6.673770
13.690874 0.745251 5.956740
13.354955 10.302074 3.104548
12.444039 8.240891 3.394654
12.886598 0.129519 7.148397
11.742743 8.779814 7.438503
13.248497 0.246358 18.229591
11.787198 8.138176 18.296530
10.233975 3.950520 17.543548
12.650847 5.607794 18.502768
13.863421 3.875580 18.301327
10.881900 8.460544 22.695764
14.668534 0.707901 24.531020
10.953541 7.611367 14.327294
14.093675 10.526402 13.764766
14.193950 0.729010 22.132543
10.421618 7.577360 24.882152
11.217194 4.139657 17.965726
11.723736 5.374238 17.991211
11.930092 3.012523 18.551596
13.275694 3.032279 18.643843
11.004258 6.482311 17.427750
14.039425 1.909382 19.115244
16.733818 9.274391 18.252705
18.116944 9.471809 18.881710
12.718774 9.211595 15.604678
12.942283 9.909834 24.967527
12.169915 9.858612 20.857973
12.394646 9.943523 22.267845
12.536766 9.091783 14.192308
11.196021 8.224739 25.277758
11.553351 8.237741 13.677554
13.313086 9.890998 13.358040
11.927508 9.074465 24.445636
11.658264 9.102987 23.098571
13.616997 0.080023 22.780622
13.894995 0.059506 24.135751
10.818383 1.558682 19.162420
18.178538 10.705529 20.334978
15.991549 7.507946 18.346665
19.163773 7.456780 17.266913
16.986971 1.251217 17.752515
15.920781 10.276769 18.002293
19.218322 8.824943 18.563553
11.487885 7.647824 17.582465
20.165178 6.293861 16.865437
15.194615 2.097018 19.633669
13.580329 0.743055 18.916638
13.244409 10.299878 16.064447
12.333494 8.238695 16.354552
12.776053 0.127323 20.108295
11.632198 8.777618 20.398402
13.126103 10.960031 5.269692
11.664804 18.851849 5.336632
10.111581 14.664193 4.583650
12.528453 16.321468 5.542869
13.741027 14.589253 5.341429
10.759506 19.174217 9.735865
14.546140 11.421574 11.571122
10.831147 18.325040 1.367396
13.971281 21.240075 0.804867
14.071556 11.442683 9.172645
10.299223 18.291033 11.922254
11.094800 14.853331 5.005827
11.601341 16.087912 5.031313
11.807698 13.726196 5.591697
13.153300 13.745952 5.683944
10.881864 17.195985 4.467851
13.917031 12.623055 6.155346
16.611423 19.988064 5.292807
17.994550 20.185482 5.921811
12.596380 19.925269 2.644780
12.819889 20.623508 12.007629
12.047520 20.572285 7.898074
12.272252 20.657196 9.307947
12.414372 19.805457 1.232410
11.073627 18.938413 12.317860
11.430957 18.951414 0.717656
13.190692 20.604671 0.398142
11.805114 19.788138 11.485738
11.535870 19.816660 10.138673
13.494603 10.793696 9.820723
13.772601 10.773179 11.175853
10.695988 12.272355 6.202522
18.522023 -0.003753 7.375080
18.056143 21.419202 7.375080
15.869154 18.221620 5.386766
19.041378 18.170453 4.307015
16.864577 11.964890 4.792616
15.798387 20.990443 5.042394
19.095928 19.538616 5.603654
11.365490 18.361498 4.622567
20.042783 17.007534 3.905538
15.072221 12.810691 6.673770
13.457934 11.456729 5.956740
13.122015 21.013551 3.104548
12.211100 18.952369 3.394654
12.653659 10.840996 7.148397
11.509804 19.491291 7.438503
13.015557 10.957835 18.229591
11.554258 18.849653 18.296530
10.001035 14.661997 17.543548
12.417907 16.319272 18.502768
13.630481 14.587058 18.301327
10.648961 19.172021 22.695764
14.435594 11.419378 24.531020
10.720601 18.322844 14.327294
13.860736 21.237880 13.764766
13.961011 11.440487 22.132543
10.188678 18.288837 24.882152
10.984254 14.851135 17.965726
11.490796 16.085716 17.991211
11.697152 13.724000 18.551596
13.042754 13.743757 18.643843
10.771319 17.193789 17.427750
13.806485 12.620859 19.115244
16.500878 19.985868 18.252705
17.884004 20.183286 18.881710
12.485835 19.923073 15.604678
12.709343 20.621312 24.967527
11.936975 20.570089 20.857973
12.161706 20.655001 22.267845
12.303826 19.803261 14.192308
10.963082 18.936217 25.277758
11.320412 18.949219 13.677554
13.080146 20.602475 13.358040
11.694568 19.785943 24.445636
11.425324 19.814464 23.098571
13.384058 10.791500 22.780622
13.662055 10.770983 24.135751
10.585443 12.270159 19.162420
18.411477 -0.005949 20.334978
17.945598 21.417006 20.334978
15.758609 18.219424 18.346665
18.930833 18.168257 17.266913
16.754032 11.962694 17.752515
15.687841 20.988247 18.002293
18.985383 19.536420 18.563553
11.254945 18.359302 17.582465
19.932238 17.005338 16.865437
14.961676 12.808495 19.633669
13.347389 11.454533 18.916638
13.011470 21.011356 16.064447
12.100554 18.950173 16.354552
12.543113 10.838800 20.108295
11.399258 19.489096 20.398402
POINT_DATA 372
SCALARS my_scalars float
LOOKUP_TABLE default
1.39
1.39
1.09
1.09
1.09
1.09
1.09
1.09
1.09
1.09
1.09
1.7
1.7
1.7
1.7
1.7
1.7
1.7
1.7
1.7
1.7
1.7
1.7
1.7
1.7
1.7
1.7
1.7
1.7
1.7
1.7
1.85
1.85
1.85
1.85
1.85
1.55
1.55
1.52
1.52
1.52
1.52
1.52
1.52
1.52
1.52
1.39
1.39
1.09
1.09
1.09
1.09
1.09
1.09
1.09
1.09
1.09
1.7
1.7
1.7
1.7
1.7
1.7
1.7
1.7
1.7
1.7
1.7
1.7
1.7
1.7
1.7
1.7
1.7
1.7
1.7
1.7
1.85
1.85
1.85
1.85
1.85
1.55
1.55
1.52
1.52
1.52
1.52
1.52
1.52
1.52
1.52
1.39
1.39
1.09
1.09
1.09
1.09
1.09
1.09
1.09
1.09
1.09
1.7
1.7
1.7
1.7
1.7
1.7
1.7
1.7
1.7
1.7
1.7
1.7
1.7
1.7
1.7
1.7
1.7
1.7
1.7
1.7
1.85
1.85
1.85
1.85
1.85
1.85
1.55
1.55
1.52
1.52
1.52
1.52
1.52
1.52
1.52
1.52
1.39
1.39
1.09
1.09
1.09
1.09
1.09
1.09
1.09
1.09
1.09
1.7
1.7
1.7
1.7
1.7
1.7
1.7
1.7
1.7
1.7
1.7
1.7
1.7
1.7
1.7
1.7
1.7
1.7
1.7
1.7
1.85
1.85
1.85
1.85
1.85
1.85
1.55
1.55
1.52
1.52
1.52
1.52
1.52
1.52
1.52
1.52
1.39
1.39
1.09
1.09
1.09
1.09
1.09
1.09
1.09
1.09
1.09
1.7
1.7
1.7
1.7
1.7
1.7
1.7
1.7
1.7
1.7
1.7
1.7
1.7
1.7
1.7
1.7
1.7
1.7
1.7
1.7
1.85
1.85
1.85
1.85
1.85
1.55
1.55
1.52
1.52
1.52
1.52
1.52
1.52
1.52
1.52
1.39
1.39
1.09
1.09
1.09
1.09
1.09
1.09
1.09
1.09
1.09
1.7
1.7
1.7
1.7
1.7
1.7
1.7
1.7
1.7
1.7
1.7
1.7
1.7
1.7
1.7
1.7
1.7
1.7
1.7
1.7
1.85
1.85
1.85
1.85
1.85
1.55
1.55
1.52
1.52
1.52
1.52
1.52
1.52
1.52
1.52
1.39
1.39
1.09
1.09
1.09
1.09
1.09
1.09
1.09
1.09
1.09
1.7
1.7
1.7
1.7
1.7
1.7
1.7
1.7
1.7
1.7
1.7
1.7
1.7
1.7
1.7
1.7
1.7
1.7
1.7
1.7
1.85
1.85
1.85
1.85
1.85
1.85
1.55
1.55
1.52
1.52
1.52
1.52
1.52
1.52
1.52
1.52
1.39
1.39
1.09
1.09
1.09
1.09
1.09
1.09
1.09
1.09
1.09
1.7
1.7
1.7
1.7
1.7
1.7
1.7
1.7
1.7
1.7
1.7
1.7
1.7
1.7
1.7
1.7
1.7
1.7
1.7
1.7
1.85
1.85
1.85
1.85
1.85
1.85
1.55
1.55
1.52
1.52
1.52
1.52
1.52
1.52
1.52
1.52
VECTORS vectors float
0.4375 0 0
0.4375 0 0
0.25 0 0
0.25 0 0
0.25 0 0
0.25 0 0
0.25 0 0
0.25 0 0
0.25 0 0
0.25 0 0
0.25 0 0
0.3125 0 0
0.3125 0 0
0.3125 0 0
0.3125 0 0
0.3125 0 0
0.3125 0 0
0.3125 0 0
0.3125 0 0
0.3125 0 0
0.3125 0 0
0.3125 0 0
0.3125 0 0
0.3125 0 0
0.3125 0 0
0.3125 0 0
0.3125 0 0
0.3125 0 0
0.3125 0 0
0.3125 0 0
0.3125 0 0
0.4375 0 0
0.4375 0 0
0.4375 0 0
0.4375 0 0
0.4375 0 0
0 0 0
0 0 0
0.03125 0 0
0.03125 0 0
0.03125 0 0
0.03125 0 0
0.03125 0 0
0.03125 0 0
0.03125 0 0
0.03125 0 0
0.4375 0 0
0.4375 0 0
0.25 0 0
0.25 0 0
0.25 0 0
0.25 0 0
0.25 0 0
0.25 0 0
0.25 0 0
0.25 0 0
0.25 0 0
0.3125 0 0
0.3125 0 0
0.3125 0 0
0.3125 0 0
0.3125 0 0
0.3125 0 0
0.3125 0 0
0.3125 0 0
0.3125 0 0
0.3125 0 0
0.3125 0 0
0.3125 0 0
0.3125 0 0
0.3125 0 0
0.3125 0 0
0.3125 0 0
0.3125 0 0
0.3125 0 0
0.3125 0 0
0.3125 0 0
0.4375 0 0
0.4375 0 0
0.4375 0 0
0.4375 0 0
0.4375 0 0
0 0 0
0 0 0
0.03125 0 0
0.03125 0 0
0.03125 0 0
0.03125 0 0
0.03125 0 0
0.03125 0 0
0.03125 0 0
0.03125 0 0
0.4375 0 0
0.4375 0 0
0.25 0 0
0.25 0 0
0.25 0 0
0.25 0 0
0.25 0 0
0.25 0 0
0.25 0 0
0.25 0 0
0.25 0 0
0.3125 0 0
0.3125 0 0
0.3125 0 0
0.3125 0 0
0.3125 0 0
0.3125 0 0
0.3125 0 0
0.3125 0 0
0.3125 0 0
0.3125 0 0
0.3125 0 0
0.3125 0 0
0.3125 0 0
0.3125 0 0
0.3125 0 0
0.3125 0 0
0.3125 0 0
0.3125 0 0
0.3125 0 0
0.3125 0 0
0.4375 0 0
0.4375 0 0
0.4375 0 0
0.4375 0 0
0.4375 0 0
0.4375 0 0
0 0 0
0 0 0
0.03125 0 0
0.03125 0 0
0.03125 0 0
0.03125 0 0
0.03125 0 0
0.03125 0 0
0.03125 0 0
0.03125 0 0
0.4375 0 0
0.4375 0 0
0.25 0 0
0.25 0 0
0.25 0 0
0.25 0 0
0.25 0 0
0.25 0 0
0.25 0 0
0.25 0 0
0.25 0 0
0.3125 0 0
0.3125 0 0
0.3125 0 0
0.3125 0 0
0.3125 0 0
0.3125 0 0
0.3125 0 0
0.3125 0 0
0.3125 0 0
0.3125 0 0
0.3125 0 0
0.3125 0 0
0.3125 0 0
0.3125 0 0
0.3125 0 0
0.3125 0 0
0.3125 0 0
0.3125 0 0
0.3125 0 0
0.3125 0 0
0.4375 0 0
0.4375 0 0
0.4375 0 0
0.4375 0 0
0.4375 0 0
0.4375 0 0
0 0 0
0 0 0
0.03125 0 0
0.03125 0 0
0.03125 0 0
0.03125 0 0
0.03125 0 0
0.03125 0 0
0.03125 0 0
0.03125 0 0
0.4375 0 0
0.4375 0 0
0.25 0 0
0.25 0 0
0.25 0 0
0.25 0 0
0.25 0 0
0.25 0 0
0.25 0 0
0.25 0 0
0.25 0 0
0.3125 0 0
0.3125 0 0
0.3125 0 0
0.3125 0 0
0.3125 0 0
0.3125 0 0
0.3125 0 0
0.3125 0 0
0.3125 0 0
0.3125 0 0
0.3125 0 0
0.3125 0 0
0.3125 0 0
0.3125 0 0
0.3125 0 0
0.3125 0 0
0.3125 0 0
0.3125 0 0
0.3125 0 0
0.3125 0 0
0.4375 0 0
0.4375 0 0
0.4375 0 0
0.4375 0 0
0.4375 0 0
0 0 0
0 0 0
0.03125 0 0
0.03125 0 0
0.03125 0 0
0.03125 0 0
0.03125 0 0
0.03125 0 0
0.03125 0 0
0.03125 0 0
0.4375 0 0
0.4375 0 0
0.25 0 0
0.25 0 0
0.25 0 0
0.25 0 0
0.25 0 0
0.25 0 0
0.25 0 0
0.25 0 0
0.25 0 0
0.3125 0 0
0.3125 0 0
0.3125 0 0
0.3125 0 0
0.3125 0 0
0.3125 0 0
0.3125 0 0
0.3125 0 0
0.3125 0 0
0.3125 0 0
0.3125 0 0
0.3125 0 0
0.3125 0 0
0.3125 0 0
0.3125 0 0
0.3125 0 0
0.3125 0 0
0.3125 0 0
0.3125 0 0
0.3125 0 0
0.4375 0 0
0.4375 0 0
0.4375 0 0
0.4375 0 0
0.4375 0 0
0 0 0
0 0 0
0.03125 0 0
0.03125 0 0
0.03125 0 0
0.03125 0 0
0.03125 0 0
0.03125 0 0
0.03125 0 0
0.03125 0 0
0.4375 0 0
0.4375 0 0
0.25 0 0
0.25 0 0
0.25 0 0
0.25 0 0
0.25 0 0
0.25 0 0
0.25 0 0
0.25 0 0
0.25 0 0
0.3125 0 0
0.3125 0 0
0.3125 0 0
0.3125 0 0
0.3125 0 0
0.3125 0 0
0.3125 0 0
0.3125 0 0
0.3125 0 0
0.3125 0 0
0.3125 0 0
0.3125 0 0
0.3125 0 0
0.3125 0 0
0.3125 0 0
0.3125 0 0
0.3125 0 0
0.3125 0 0
0.3125 0 0
0.3125 0 0
0.4375 0 0
0.4375 0 0
0.4375 0 0
0.4375 0 0
0.4375 0 0
0.4375 0 0
0 0 0
0 0 0
0.03125 0 0
0.03125 0 0
0.03125 0 0
0.03125 0 0
0.03125 0 0
0.03125 0 0
0.03125 0 0
0.03125 0 0
0.4375 0 0
0.4375 0 0
0.25 0 0
0.25 0 0
0.25 0 0
0.25 0 0
0.25 0 0
0.25 0 0
0.25 0 0
0.25 0 0
0.25 0 0
0.3125 0 0
0.3125 0 0
0.3125 0 0
0.3125 0 0
0.3125 0 0
0.3125 0 0
0.3125 0 0
0.3125 0 0
0.3125 0 0
0.3125 0 0
0.3125 0 0
0.3125 0 0
0.3125 0 0
0.3125 0 0
0.3125 0 0
0.3125 0 0
0.3125 0 0
0.3125 0 0
0.3125 0 0
0.3125 0 0
0.4375 0 0
0.4375 0 0
0.4375 0 0
0.4375 0 0
0.4375 0 0
0.4375 0 0
0 0 0
0 0 0
0.03125 0 0
0.03125 0 0
0.03125 0 0
0.03125 0 0
0.03125 0 0
0.03125 0 0
0.03125 0 0
0.03125 0 0
