# vtk DataFile Version 1.0
Cube
ASCII

DATASET POLYDATA
POINTS 464 float
0.280288 11.884915 11.772200
12.630697 10.214746 14.086613
12.881426 12.891031 4.501714
2.279928 10.259798 5.780417
0.254687 8.272574 6.009279
1.235320 10.989725 3.239223
10.858963 10.911484 4.741940
11.901919 10.183402 7.278361
11.230735 5.311487 14.933901
1.742934 1.779380 10.883622
1.333047 6.282087 11.840967
11.640503 0.810074 13.976833
6.037457 12.243459 12.041900
6.909304 9.905260 13.828434
0.099432 9.320019 5.675770
1.205620 10.400352 5.539103
0.917777 13.170041 8.118578
12.082928 8.252252 2.243943
12.501073 10.358100 6.360520
0.270693 11.422250 6.204516
11.934079 10.769931 4.979549
12.866303 9.747280 4.311753
13.037537 11.845054 4.839275
0.636323 10.811608 4.157309
0.646588 12.379141 7.249831
11.666009 7.634883 1.017881
12.439759 8.879341 3.209853
1.190042 14.091328 9.184909
-0.032427 2.146084 12.630079
13.042362 4.940856 13.224291
12.337457 2.604509 13.576039
0.668935 4.483374 12.273802
0.794324 3.105944 11.980939
12.212121 3.981365 13.868781
0.102863 0.707461 12.331904
12.915945 6.377119 13.537362
2.194847 10.070338 14.173426
10.751915 12.078382 11.696910
3.608016 10.279273 13.862009
9.338747 11.869446 12.008325
6.226853 10.596638 13.342960
6.719908 11.552079 12.527374
8.154778 11.704727 12.260295
4.791986 10.443992 13.610040
12.813750 7.513925 13.785294
0.159880 14.563417 12.095945
10.507571 7.890529 0.577712
12.534241 7.051376 0.294936
2.444596 14.283355 9.462810
0.467263 0.131513 9.227336
11.251734 4.332202 14.803125
1.750493 2.754519 11.042577
1.514848 5.343122 11.592954
11.487143 1.746183 14.253296
1.321656 10.760696 13.437359
11.625106 11.388022 12.432974
11.030459 12.942386 10.717460
1.916300 9.206331 15.152874
0.137857 11.872969 27.820024
12.488266 10.202801 30.134436
12.738995 12.879086 20.549538
2.137497 10.247853 21.828240
0.112256 8.260628 22.057103
1.092889 10.977779 19.287046
10.716532 10.899539 20.789764
11.759488 10.171456 23.326184
11.088304 5.299542 30.981724
1.600503 1.767435 26.931445
1.190616 6.270141 27.888790
11.498072 0.798129 30.024656
5.895026 12.231513 28.089724
6.766873 9.893315 29.876258
-0.042999 9.308074 21.723594
1.063189 10.388407 21.586927
0.775346 13.158096 24.166401
11.940497 8.240307 18.291766
12.358642 10.346155 22.408343
0.128262 11.410304 22.252339
11.791648 10.757986 21.027372
12.723872 9.735334 20.359577
12.895106 11.833108 20.887099
0.493892 10.799663 20.205133
0.504157 12.367196 23.297655
11.523578 7.622938 17.065705
12.297328 8.867396 19.257676
1.047611 14.079383 25.232733
-0.174858 2.134139 28.677903
12.899931 4.928911 29.272115
12.195026 2.592564 29.623863
0.526504 4.471429 28.321626
0.651893 3.093998 28.028763
12.069690 3.969420 29.916605
-0.039568 0.695515 28.379728
12.773514 6.365174 29.585186
2.052416 10.058393 30.221250
10.609484 12.066437 27.744733
3.465585 10.267328 29.909833
9.196316 11.857501 28.056149
6.084422 10.584692 29.390783
6.577477 11.540133 28.575197
8.012347 11.692782 28.308118
4.649554 10.432047 29.657864
12.671319 7.501980 29.833117
0.017449 14.551471 28.143769
10.365140 7.878584 16.625535
12.391810 7.039431 16.342759
2.302165 14.271409 25.510634
0.324832 0.119568 25.275159
11.109303 4.320257 30.850949
1.608062 2.742574 27.090400
1.372417 5.331176 27.640777
11.344712 1.734237 30.301119
1.179225 10.748750 29.485183
11.482675 11.376077 28.480798
10.888028 12.930441 26.765284
1.773869 9.194385 31.200697
0.232324 26.879968 11.772200
12.582733 25.209800 14.086613
12.833462 27.886085 4.501714
2.231964 25.254852 5.780417
0.206723 23.267627 6.009279
1.187355 25.984778 3.239223
10.810999 25.906538 4.741940
11.853955 25.178455 7.278361
11.182770 20.306541 14.933901
1.694970 16.774434 10.883622
1.285082 21.277140 11.840967
11.592539 15.805127 13.976833
5.989493 27.238512 12.041900
6.861340 24.900313 13.828434
0.051468 24.315073 5.675770
1.157656 25.395405 5.539103
0.869812 28.165095 8.118578
12.034964 23.247305 2.243943
12.453108 25.353153 6.360520
0.222728 26.417303 6.204516
11.886115 25.764984 4.979549
12.818339 24.742333 4.311753
12.989573 26.840107 4.839275
0.588359 25.806661 4.157309
0.598624 27.374194 7.249831
11.618044 22.629936 1.017881
12.391795 23.874394 3.209853
1.142078 29.086381 9.184909
-0.080391 17.141137 12.630079
12.994398 19.935910 13.224291
12.289493 17.599562 13.576039
0.620971 19.478427 12.273802
0.746359 18.100997 11.980939
12.164157 18.976418 13.868781
0.054898 15.702514 12.331904
12.867980 21.372173 13.537362
2.146883 25.065391 14.173426
10.703951 27.073436 11.696910
3.560052 25.274327 13.862009
9.290782 26.864499 12.008325
6.178889 25.591691 13.342960
6.671944 26.547132 12.527374
8.106814 26.699780 12.260295
4.744021 25.439046 13.610040
12.765786 22.508978 13.785294
0.111916 29.558470 12.095945
10.459607 22.885583 0.577712
12.486277 22.046429 0.294936
2.396631 29.278408 9.462810
0.419299 15.126566 9.227336
11.203770 19.327255 14.803125
1.702529 17.749572 11.042577
1.466883 20.338175 11.592954
11.439179 16.741236 14.253296
1.273692 25.755749 13.437359
11.577141 26.383075 12.432974
10.982495 27.937439 10.717460
1.868335 24.201384 15.152874
0.089893 26.868023 27.820024
12.440302 25.197854 30.134436
12.691031 27.874139 20.549538
2.089533 25.242906 21.828240
0.064292 23.255682 22.057103
1.044924 25.972833 19.287046
10.668568 25.894592 20.789764
11.711524 25.166510 23.326184
11.040339 20.294595 30.981724
1.552539 16.762488 26.931445
1.142651 21.265195 27.888790
11.450108 15.793182 30.024656
5.847062 27.226567 28.089724
6.718909 24.888368 29.876258
-0.090963 24.303127 21.723594
1.015225 25.383460 21.586927
0.727381 28.153149 24.166401
11.892533 23.235360 18.291766
12.310677 25.341208 22.408343
0.080297 26.405358 22.252339
11.743684 25.753039 21.027372
12.675908 24.730388 20.359577
12.847141 26.828162 20.887099
0.445928 25.794716 20.205133
0.456193 27.362249 23.297655
11.475613 22.617991 17.065705
12.249364 23.862449 19.257676
0.999647 29.074436 25.232733
-0.222822 17.129192 28.677903
12.851967 19.923964 29.272115
12.147062 17.587617 29.623863
0.478540 19.466482 28.321626
0.603928 18.089052 28.028763
12.021726 18.964473 29.916605
-0.087533 15.690569 28.379728
12.725549 21.360227 29.585186
2.004452 25.053446 30.221250
10.561520 27.061490 27.744733
3.417621 25.262381 29.909833
9.148351 26.852554 28.056149
6.036458 25.579746 29.390783
6.529513 26.535187 28.575197
7.964383 26.687835 28.308118
4.601590 25.427100 29.657864
12.623355 22.497033 29.833117
-0.030515 29.546525 28.143769
10.317176 22.873637 16.625535
12.343846 22.034484 16.342759
2.254200 29.266463 25.510634
0.276868 15.114621 25.275159
11.061339 19.315310 30.850949
1.560098 17.737627 27.090400
1.324452 20.326230 27.640777
11.296748 16.729291 30.301119
1.131261 25.743804 29.485183
11.434710 26.371130 28.480798
10.840064 27.925494 26.765284
1.725904 24.189439 31.200697
13.609488 11.884915 11.772200
25.959897 10.214746 14.086613
26.210626 12.891031 4.501714
15.609128 10.259798 5.780417
13.583887 8.272574 6.009279
14.564520 10.989725 3.239223
24.188163 10.911484 4.741940
25.231119 10.183402 7.278361
24.559935 5.311487 14.933901
15.072134 1.779380 10.883622
14.662247 6.282087 11.840967
24.969703 0.810074 13.976833
19.366657 12.243459 12.041900
20.238504 9.905260 13.828434
13.428632 9.320019 5.675770
14.534820 10.400352 5.539103
14.246977 13.170041 8.118578
25.412128 8.252252 2.243943
25.830273 10.358100 6.360520
13.599893 11.422250 6.204516
25.263279 10.769931 4.979549
26.195503 9.747280 4.311753
26.366737 11.845054 4.839275
13.965523 10.811608 4.157309
13.975788 12.379141 7.249831
24.995209 7.634883 1.017881
25.768959 8.879341 3.209853
14.519242 14.091328 9.184909
13.296773 2.146084 12.630079
26.371562 4.940856 13.224291
25.666657 2.604509 13.576039
13.998135 4.483374 12.273802
14.123524 3.105944 11.980939
25.541321 3.981365 13.868781
13.432063 0.707461 12.331904
26.245145 6.377119 13.537362
15.524047 10.070338 14.173426
24.081115 12.078382 11.696910
16.937216 10.279273 13.862009
22.667947 11.869446 12.008325
19.556053 10.596638 13.342960
20.049108 11.552079 12.527374
21.483978 11.704727 12.260295
18.121186 10.443992 13.610040
26.142950 7.513925 13.785294
13.489080 14.563417 12.095945
23.836771 7.890529 0.577712
25.863441 7.051376 0.294936
15.773796 14.283355 9.462810
13.796463 0.131513 9.227336
24.580934 4.332202 14.803125
15.079693 2.754519 11.042577
14.844048 5.343122 11.592954
24.816343 1.746183 14.253296
14.650856 10.760696 13.437359
24.954306 11.388022 12.432974
24.359659 12.942386 10.717460
15.245500 9.206331 15.152874
13.467057 11.872969 27.820024
25.817466 10.202801 30.134436
26.068195 12.879086 20.549538
15.466697 10.247853 21.828240
13.441456 8.260628 22.057103
14.422089 10.977779 19.287046
24.045732 10.899539 20.789764
25.088688 10.171456 23.326184
24.417504 5.299542 30.981724
14.929703 1.767435 26.931445
14.519816 6.270141 27.888790
24.827272 0.798129 30.024656
19.224226 12.231513 28.089724
20.096073 9.893315 29.876258
13.286201 9.308074 21.723594
14.392389 10.388407 21.586927
14.104546 13.158096 24.166401
25.269697 8.240307 18.291766
25.687842 10.346155 22.408343
13.457462 11.410304 22.252339
25.120848 10.757986 21.027372
26.053072 9.735334 20.359577
26.224306 11.833108 20.887099
13.823092 10.799663 20.205133
13.833357 12.367196 23.297655
24.852778 7.622938 17.065705
25.626528 8.867396 19.257676
14.376811 14.079383 25.232733
13.154342 2.134139 28.677903
26.229131 4.928911 29.272115
25.524226 2.592564 29.623863
13.855704 4.471429 28.321626
13.981093 3.093998 28.028763
25.398890 3.969420 29.916605
13.289632 0.695515 28.379728
26.102714 6.365174 29.585186
15.381616 10.058393 30.221250
23.938684 12.066437 27.744733
16.794785 10.267328 29.909833
22.525516 11.857501 28.056149
19.413622 10.584692 29.390783
19.906677 11.540133 28.575197
21.341547 11.692782 28.308118
17.978754 10.432047 29.657864
26.000519 7.501980 29.833117
13.346649 14.551471 28.143769
23.694340 7.878584 16.625535
25.721010 7.039431 16.342759
15.631365 14.271409 25.510634
13.654032 0.119568 25.275159
24.438503 4.320257 30.850949
14.937262 2.742574 27.090400
14.701617 5.331176 27.640777
24.673912 1.734237 30.301119
14.508425 10.748750 29.485183
24.811875 11.376077 28.480798
24.217228 12.930441 26.765284
15.103069 9.194385 31.200697
13.561524 26.879968 11.772200
25.911933 25.209800 14.086613
26.162662 27.886085 4.501714
15.561164 25.254852 5.780417
13.535923 23.267627 6.009279
14.516555 25.984778 3.239223
24.140199 25.906538 4.741940
25.183155 25.178455 7.278361
24.511970 20.306541 14.933901
15.024170 16.774434 10.883622
14.614282 21.277140 11.840967
24.921739 15.805127 13.976833
19.318693 27.238512 12.041900
20.190540 24.900313 13.828434
13.380668 24.315073 5.675770
14.486856 25.395405 5.539103
14.199012 28.165095 8.118578
25.364164 23.247305 2.243943
25.782308 25.353153 6.360520
13.551928 26.417303 6.204516
25.215315 25.764984 4.979549
26.147539 24.742333 4.311753
26.318773 26.840107 4.839275
13.917559 25.806661 4.157309
13.927824 27.374194 7.249831
24.947244 22.629936 1.017881
25.720995 23.874394 3.209853
14.471278 29.086381 9.184909
13.248809 17.141137 12.630079
26.323598 19.935910 13.224291
25.618693 17.599562 13.576039
13.950171 19.478427 12.273802
14.075559 18.100997 11.980939
25.493357 18.976418 13.868781
13.384098 15.702514 12.331904
26.197180 21.372173 13.537362
15.476083 25.065391 14.173426
24.033151 27.073436 11.696910
16.889252 25.274327 13.862009
22.619982 26.864499 12.008325
19.508089 25.591691 13.342960
20.001144 26.547132 12.527374
21.436014 26.699780 12.260295
18.073221 25.439046 13.610040
26.094986 22.508978 13.785294
13.441116 29.558470 12.095945
23.788807 22.885583 0.577712
25.815477 22.046429 0.294936
15.725831 29.278408 9.462810
13.748499 15.126566 9.227336
24.532970 19.327255 14.803125
15.031729 17.749572 11.042577
14.796083 20.338175 11.592954
24.768379 16.741236 14.253296
14.602892 25.755749 13.437359
24.906341 26.383075 12.432974
24.311695 27.937439 10.717460
15.197535 24.201384 15.152874
13.419093 26.868023 27.820024
25.769502 25.197854 30.134436
26.020231 27.874139 20.549538
15.418733 25.242906 21.828240
13.393492 23.255682 22.057103
14.374124 25.972833 19.287046
23.997768 25.894592 20.789764
25.040724 25.166510 23.326184
24.369539 20.294595 30.981724
14.881739 16.762488 26.931445
14.471851 21.265195 27.888790
24.779308 15.793182 30.024656
19.176262 27.226567 28.089724
20.048109 24.888368 29.876258
13.238237 24.303127 21.723594
14.344425 25.383460 21.586927
14.056581 28.153149 24.166401
25.221733 23.235360 18.291766
25.639877 25.341208 22.408343
13.409497 26.405358 22.252339
25.072884 25.753039 21.027372
26.005108 24.730388 20.359577
26.176341 26.828162 20.887099
13.775128 25.794716 20.205133
13.785393 27.362249 23.297655
24.804813 22.617991 17.065705
25.578564 23.862449 19.257676
14.328847 29.074436 25.232733
13.106378 17.129192 28.677903
26.181167 19.923964 29.272115
25.476262 17.587617 29.623863
13.807740 19.466482 28.321626
13.933128 18.089052 28.028763
25.350926 18.964473 29.916605
13.241667 15.690569 28.379728
26.054749 21.360227 29.585186
15.333652 25.053446 30.221250
23.890720 27.061490 27.744733
16.746821 25.262381 29.909833
22.477551 26.852554 28.056149
19.365658 25.579746 29.390783
19.858713 26.535187 28.575197
21.293583 26.687835 28.308118
17.930790 25.427100 29.657864
25.952555 22.497033 29.833117
13.298685 29.546525 28.143769
23.646376 22.873637 16.625535
25.673046 22.034484 16.342759
15.583400 29.266463 25.510634
13.606068 15.114621 25.275159
24.390539 19.315310 30.850949
14.889298 17.737627 27.090400
14.653652 20.326230 27.640777
24.625948 16.729291 30.301119
14.460461 25.743804 29.485183
24.763910 26.371130 28.480798
24.169264 27.925494 26.765284
15.055104 24.189439 31.200697
POINT_DATA 464
SCALARS my_scalars float
LOOKUP_TABLE default
1.39
1.39
1.09
1.09
1.09
1.09
1.09
1.09
1.09
1.09
1.09
1.09
1.09
1.09
1.7
1.7
1.7
1.7
1.7
1.7
1.7
1.7
1.7
1.7
1.7
1.7
1.7
1.7
1.7
1.7
1.7
1.7
1.7
1.7
1.7
1.7
1.7
1.7
1.7
1.7
1.7
1.7
1.7
1.7
1.55
1.55
1.52
1.52
1.52
1.52
1.52
1.52
1.52
1.52
1.52
1.52
1.52
1.52
1.39
1.39
1.09
1.09
1.09
1.09
1.09
1.09
1.09
1.09
1.09
1.09
1.09
1.09
1.7
1.7
1.7
1.7
1.7
1.7
1.7
1.7
1.7
1.7
1.7
1.7
1.7
1.7
1.7
1.7
1.7
1.7
1.7
1.7
1.7
1.7
1.7
1.7
1.7
1.7
1.7
1.7
1.7
1.7
1.55
1.55
1.52
1.52
1.52
1.52
1.52
1.52
1.52
1.52
1.52
1.52
1.52
1.52
1.39
1.39
1.09
1.09
1.09
1.09
1.09
1.09
1.09
1.09
1.09
1.09
1.09
1.09
1.7
1.7
1.7
1.7
1.7
1.7
1.7
1.7
1.7
1.7
1.7
1.7
1.7
1.7
1.7
1.7
1.7
1.7
1.7
1.7
1.7
1.7
1.7
1.7
1.7
1.7
1.7
1.7
1.7
1.7
1.55
1.55
1.52
1.52
1.52
1.52
1.52
1.52
1.52
1.52
1.52
1.52
1.52
1.52
1.39
1.39
1.09
1.09
1.09
1.09
1.09
1.09
1.09
1.09
1.09
1.09
1.09
1.09
1.7
1.7
1.7
1.7
1.7
1.7
1.7
1.7
1.7
1.7
1.7
1.7
1.7
1.7
1.7
1.7
1.7
1.7
1.7
1.7
1.7
1.7
1.7
1.7
1.7
1.7
1.7
1.7
1.7
1.7
1.55
1.55
1.52
1.52
1.52
1.52
1.52
1.52
1.52
1.52
1.52
1.52
1.52
1.52
1.39
1.39
1.09
1.09
1.09
1.09
1.09
1.09
1.09
1.09
1.09
1.09
1.09
1.09
1.7
1.7
1.7
1.7
1.7
1.7
1.7
1.7
1.7
1.7
1.7
1.7
1.7
1.7
1.7
1.7
1.7
1.7
1.7
1.7
1.7
1.7
1.7
1.7
1.7
1.7
1.7
1.7
1.7
1.7
1.55
1.55
1.52
1.52
1.52
1.52
1.52
1.52
1.52
1.52
1.52
1.52
1.52
1.52
1.39
1.39
1.09
1.09
1.09
1.09
1.09
1.09
1.09
1.09
1.09
1.09
1.09
1.09
1.7
1.7
1.7
1.7
1.7
1.7
1.7
1.7
1.7
1.7
1.7
1.7
1.7
1.7
1.7
1.7
1.7
1.7
1.7
1.7
1.7
1.7
1.7
1.7
1.7
1.7
1.7
1.7
1.7
1.7
1.55
1.55
1.52
1.52
1.52
1.52
1.52
1.52
1.52
1.52
1.52
1.52
1.52
1.52
1.39
1.39
1.09
1.09
1.09
1.09
1.09
1.09
1.09
1.09
1.09
1.09
1.09
1.09
1.7
1.7
1.7
1.7
1.7
1.7
1.7
1.7
1.7
1.7
1.7
1.7
1.7
1.7
1.7
1.7
1.7
1.7
1.7
1.7
1.7
1.7
1.7
1.7
1.7
1.7
1.7
1.7
1.7
1.7
1.55
1.55
1.52
1.52
1.52
1.52
1.52
1.52
1.52
1.52
1.52
1.52
1.52
1.52
1.39
1.39
1.09
1.09
1.09
1.09
1.09
1.09
1.09
1.09
1.09
1.09
1.09
1.09
1.7
1.7
1.7
1.7
1.7
1.7
1.7
1.7
1.7
1.7
1.7
1.7
1.7
1.7
1.7
1.7
1.7
1.7
1.7
1.7
1.7
1.7
1.7
1.7
1.7
1.7
1.7
1.7
1.7
1.7
1.55
1.55
1.52
1.52
1.52
1.52
1.52
1.52
1.52
1.52
1.52
1.52
1.52
1.52
VECTORS vectors float
0.4375 0 0
0.4375 0 0
0.25 0 0
0.25 0 0
0.25 0 0
0.25 0 0
0.25 0 0
0.25 0 0
0.25 0 0
0.25 0 0
0.25 0 0
0.25 0 0
0.25 0 0
0.25 0 0
0.3125 0 0
0.3125 0 0
0.3125 0 0
0.3125 0 0
0.3125 0 0
0.3125 0 0
0.3125 0 0
0.3125 0 0
0.3125 0 0
0.3125 0 0
0.3125 0 0
0.3125 0 0
0.3125 0 0
0.3125 0 0
0.3125 0 0
0.3125 0 0
0.3125 0 0
0.3125 0 0
0.3125 0 0
0.3125 0 0
0.3125 0 0
0.3125 0 0
0.3125 0 0
0.3125 0 0
0.3125 0 0
0.3125 0 0
0.3125 0 0
0.3125 0 0
0.3125 0 0
0.3125 0 0
0 0 0
0 0 0
0.03125 0 0
0.03125 0 0
0.03125 0 0
0.03125 0 0
0.03125 0 0
0.03125 0 0
0.03125 0 0
0.03125 0 0
0.03125 0 0
0.03125 0 0
0.03125 0 0
0.03125 0 0
0.4375 0 0
0.4375 0 0
0.25 0 0
0.25 0 0
0.25 0 0
0.25 0 0
0.25 0 0
0.25 0 0
0.25 0 0
0.25 0 0
0.25 0 0
0.25 0 0
0.25 0 0
0.25 0 0
0.3125 0 0
0.3125 0 0
0.3125 0 0
0.3125 0 0
0.3125 0 0
0.3125 0 0
0.3125 0 0
0.3125 0 0
0.3125 0 0
0.3125 0 0
0.3125 0 0
0.3125 0 0
0.3125 0 0
0.3125 0 0
0.3125 0 0
0.3125 0 0
0.3125 0 0
0.3125 0 0
0.3125 0 0
0.3125 0 0
0.3125 0 0
0.3125 0 0
0.3125 0 0
0.3125 0 0
0.3125 0 0
0.3125 0 0
0.3125 0 0
0.3125 0 0
0.3125 0 0
0.3125 0 0
0 0 0
0 0 0
0.03125 0 0
0.03125 0 0
0.03125 0 0
0.03125 0 0
0.03125 0 0
0.03125 0 0
0.03125 0 0
0.03125 0 0
0.03125 0 0
0.03125 0 0
0.03125 0 0
0.03125 0 0
0.4375 0 0
0.4375 0 0
0.25 0 0
0.25 0 0
0.25 0 0
0.25 0 0
0.25 0 0
0.25 0 0
0.25 0 0
0.25 0 0
0.25 0 0
0.25 0 0
0.25 0 0
0.25 0 0
0.3125 0 0
0.3125 0 0
0.3125 0 0
0.3125 0 0
0.3125 0 0
0.3125 0 0
0.3125 0 0
0.3125 0 0
0.3125 0 0
0.3125 0 0
0.3125 0 0
0.3125 0 0
0.3125 0 0
0.3125 0 0
0.3125 0 0
0.3125 0 0
0.3125 0 0
0.3125 0 0
0.3125 0 0
0.3125 0 0
0.3125 0 0
0.3125 0 0
0.3125 0 0
0.3125 0 0
0.3125 0 0
0.3125 0 0
0.3125 0 0
0.3125 0 0
0.3125 0 0
0.3125 0 0
0 0 0
0 0 0
0.03125 0 0
0.03125 0 0
0.03125 0 0
0.03125 0 0
0.03125 0 0
0.03125 0 0
0.03125 0 0
0.03125 0 0
0.03125 0 0
0.03125 0 0
0.03125 0 0
0.03125 0 0
0.4375 0 0
0.4375 0 0
0.25 0 0
0.25 0 0
0.25 0 0
0.25 0 0
0.25 0 0
0.25 0 0
0.25 0 0
0.25 0 0
0.25 0 0
0.25 0 0
0.25 0 0
0.25 0 0
0.3125 0 0
0.3125 0 0
0.3125 0 0
0.3125 0 0
0.3125 0 0
0.3125 0 0
0.3125 0 0
0.3125 0 0
0.3125 0 0
0.3125 0 0
0.3125 0 0
0.3125 0 0
0.3125 0 0
0.3125 0 0
0.3125 0 0
0.3125 0 0
0.3125 0 0
0.3125 0 0
0.3125 0 0
0.3125 0 0
0.3125 0 0
0.3125 0 0
0.3125 0 0
0.3125 0 0
0.3125 0 0
0.3125 0 0
0.3125 0 0
0.3125 0 0
0.3125 0 0
0.3125 0 0
0 0 0
0 0 0
0.03125 0 0
0.03125 0 0
0.03125 0 0
0.03125 0 0
0.03125 0 0
0.03125 0 0
0.03125 0 0
0.03125 0 0
0.03125 0 0
0.03125 0 0
0.03125 0 0
0.03125 0 0
0.4375 0 0
0.4375 0 0
0.25 0 0
0.25 0 0
0.25 0 0
0.25 0 0
0.25 0 0
0.25 0 0
0.25 0 0
0.25 0 0
0.25 0 0
0.25 0 0
0.25 0 0
0.25 0 0
0.3125 0 0
0.3125 0 0
0.3125 0 0
0.3125 0 0
0.3125 0 0
0.3125 0 0
0.3125 0 0
0.3125 0 0
0.3125 0 0
0.3125 0 0
0.3125 0 0
0.3125 0 0
0.3125 0 0
0.3125 0 0
0.3125 0 0
0.3125 0 0
0.3125 0 0
0.3125 0 0
0.3125 0 0
0.3125 0 0
0.3125 0 0
0.3125 0 0
0.3125 0 0
0.3125 0 0
0.3125 0 0
0.3125 0 0
0.3125 0 0
0.3125 0 0
0.3125 0 0
0.3125 0 0
0 0 0
0 0 0
0.03125 0 0
0.03125 0 0
0.03125 0 0
0.03125 0 0
0.03125 0 0
0.03125 0 0
0.03125 0 0
0.03125 0 0
0.03125 0 0
0.03125 0 0
0.03125 0 0
0.03125 0 0
0.4375 0 0
0.4375 0 0
0.25 0 0
0.25 0 0
0.25 0 0
0.25 0 0
0.25 0 0
0.25 0 0
0.25 0 0
0.25 0 0
0.25 0 0
0.25 0 0
0.25 0 0
0.25 0 0
0.3125 0 0
0.3125 0 0
0.3125 0 0
0.3125 0 0
0.3125 0 0
0.3125 0 0
0.3125 0 0
0.3125 0 0
0.3125 0 0
0.3125 0 0
0.3125 0 0
0.3125 0 0
0.3125 0 0
0.3125 0 0
0.3125 0 0
0.3125 0 0
0.3125 0 0
0.3125 0 0
0.3125 0 0
0.3125 0 0
0.3125 0 0
0.3125 0 0
0.3125 0 0
0.3125 0 0
0.3125 0 0
0.3125 0 0
0.3125 0 0
0.3125 0 0
0.3125 0 0
0.3125 0 0
0 0 0
0 0 0
0.03125 0 0
0.03125 0 0
0.03125 0 0
0.03125 0 0
0.03125 0 0
0.03125 0 0
0.03125 0 0
0.03125 0 0
0.03125 0 0
0.03125 0 0
0.03125 0 0
0.03125 0 0
0.4375 0 0
0.4375 0 0
0.25 0 0
0.25 0 0
0.25 0 0
0.25 0 0
0.25 0 0
0.25 0 0
0.25 0 0
0.25 0 0
0.25 0 0
0.25 0 0
0.25 0 0
0.25 0 0
0.3125 0 0
0.3125 0 0
0.3125 0 0
0.3125 0 0
0.3125 0 0
0.3125 0 0
0.3125 0 0
0.3125 0 0
0.3125 0 0
0.3125 0 0
0.3125 0 0
0.3125 0 0
0.3125 0 0
0.3125 0 0
0.3125 0 0
0.3125 0 0
0.3125 0 0
0.3125 0 0
0.3125 0 0
0.3125 0 0
0.3125 0 0
0.3125 0 0
0.3125 0 0
0.3125 0 0
0.3125 0 0
0.3125 0 0
0.3125 0 0
0.3125 0 0
0.3125 0 0
0.3125 0 0
0 0 0
0 0 0
0.03125 0 0
0.03125 0 0
0.03125 0 0
0.03125 0 0
0.03125 0 0
0.03125 0 0
0.03125 0 0
0.03125 0 0
0.03125 0 0
0.03125 0 0
0.03125 0 0
0.03125 0 0
0.4375 0 0
0.4375 0 0
0.25 0 0
0.25 0 0
0.25 0 0
0.25 0 0
0.25 0 0
0.25 0 0
0.25 0 0
0.25 0 0
0.25 0 0
0.25 0 0
0.25 0 0
0.25 0 0
0.3125 0 0
0.3125 0 0
0.3125 0 0
0.3125 0 0
0.3125 0 0
0.3125 0 0
0.3125 0 0
0.3125 0 0
0.3125 0 0
0.3125 0 0
0.3125 0 0
0.3125 0 0
0.3125 0 0
0.3125 0 0
0.3125 0 0
0.3125 0 0
0.3125 0 0
0.3125 0 0
0.3125 0 0
0.3125 0 0
0.3125 0 0
0.3125 0 0
0.3125 0 0
0.3125 0 0
0.3125 0 0
0.3125 0 0
0.3125 0 0
0.3125 0 0
0.3125 0 0
0.3125 0 0
0 0 0
0 0 0
0.03125 0 0
0.03125 0 0
0.03125 0 0
0.03125 0 0
0.03125 0 0
0.03125 0 0
0.03125 0 0
0.03125 0 0
0.03125 0 0
0.03125 0 0
0.03125 0 0
0.03125 0 0
