Compiler and run-time data
===========================================================================
RASPA 2.0.50
Compiled as a 64-bits application
Compiler: gcc 11.4.0
Compile Date = Jan 20 2026, Compile Time = 16:15:37

Mon Feb 16 16:37:08 2026
Simulation started on Monday, February 16.
The start time was 04:37 PM.

Hostname:    mof-sample
OS type:     Linux on x86_64
OS release:  6.8.0-1045-gcp
OS version:  #48~22.04.1-Ubuntu SMP Tue Nov 25 13:07:56 UTC 2025

Simulation
===========================================================================
Dimensions: 3
Random number seed: 1771259828
RASPA directory set to: /home/sibivarshan_m7/gcmc_tools/raspa_install
String appended to output-files: 
Number of cycles: 10000
Number of initializing cycles: 0
Number of equilibration cycles: 10000
Print every: 1000
Triclinic boundary condition applied
Timestep: 0.000500
	Degrees of freedom:                        0
	Translational Degrees of freedom:          0
	Rotational Degrees of freedom:             0
	Degrees of freedom Framework:              0


Mutual consistent basic set of units:
======================================
Unit of temperature: Kelvin
Unit of length:      1e-10 [m]
Unit of time:        1e-12 [s]
Unit of mass:        1.66054e-27 [kg]
Unit of charge:      1.60218e-19 [C/particle]

Derived units and their conversion factors:
===========================================
Unit of energy:              1.66054e-23 [J]
Unit of force:               1.66054e-13 [N]
Unit of pressure:            1.66054e+07 [Pa]
Unit of velocity:            100 [m/s]
Unit of acceleration:        1e-08 [m^2/s]
Unit of diffusion:           1e-08 [m^2/s]
Unit of dipole moment:       1.60218e-29 [C.m]
Unit of electric potential:  0.000103643 [V]
Unit of electric field:      1.03643e+06 [V]
Unit of polarizability:      1.54587e-35 [-]
Unit of Coulomb potential:   167101.0800066561  [K]
Unit of dielectric constant: 0.0000154587       [s^2 C^2/(kg m^3)]
Unit of wave vectors:        5.3088374589       [cm^1]
Boltzmann constant:          0.8314464919       [-]

Internal conversion factors:
===========================================
Energy to Kelvin:                                    1.2027242847
FH correction factor                                 2.0211930949
Heat capacity conversion factor:                    10.0000088723
From Debye to internal units:                        4.8032067991
Isothermal compressibility conversion factor:        0.0000000602

Energy conversion factors:
===========================================
From mdyne/A to kcal/mol/A^2:           143.933
From mdyne/A to kj/mol/A^2:             602.214
From mdyne/A to K/A^2:                  72429.7
From mdyne A/rad^2 to kcal/mol/deg^2:   0.0438444


Properties computed
===========================================================================
Movies: no
Radial Distribution Function: no
Number of molecules GCMC histogram: no
Histogram of the molecule positions: no
Free energy profiles: no
Pore Size Distribution Function: no
End-to-end distance: no
Histogram of the energy of the system: no
Compute thermodynamic factors: no
Framework spacing histograms: no
Residence times histograms: no
Distance histograms: no
Bend Angle histograms: no
Dihedral angle histograms: no
Angle between planes histograms: no
Molecule properties: no
Infra-red spectra: no
Mean-squared displacement using modified order-N algorithm: no
Velocity-autocorrelation function modified order-N algorithm: no
Rotational velocity-autocorrelation function modified order-N algorithm: no
Molecular orientation-autocorrelation function modified order-N algorithm: no
Bond orientation-autocorrelation function modified order-N algorithm: no
Mean-squared displacement (conventional algorithm): no
Velocity-autocorrelation function (conventional algorithm): no
3D density grid for adsorbates: no
Compute cation an/or adsorption sites: no
dcTST snapshots: no
Compute pressure and stress: no


VTK
===========================================================================
VTK fractional-range position framework atoms: [-0.001000,1.001000] [-0.001000,1.001000] [-0.001000,1.001000]
VTK fractional-range position framework bonds: [-0.151000,1.151000] [-0.151000,1.151000] [-0.151000,1.151000]
VTK fractional-range com-position adsorbate molecules: [-0.101000,1.101000] [-0.101000,1.101000] [-0.101000,1.101000]
VTK fractional-range com-position cation molecules: [-0.101000,1.101000] [-0.101000,1.101000] [-0.101000,1.101000]
	3D free energy grid made for the full simulation-cell


Thermo/Baro-stat NHC parameters
===========================================================================
External temperature: 298 [K]
Beta: 0.00403598 [energy unit]
External Pressure: 101325 [Pa]


Thermostat chain-length: 3
Timescale parameter for thermostat: 0.150000 [ps]
Barostat chain-length:   3
Timescale parameter for barostat:   0.150000 [ps]

Number of Yoshida-Suzuki decomposition steps: 5
Number of respa steps: 5


Method and settings for electrostatics
===============================================================================
Dielectric constant of the medium : 1.000000
Charge from charge-equilibration: no
Ewald summation is used (exact solution of a periodic system)
Relative precision                : 1e-06
Alpha convergence parameter       : 0.265058
kvec (x,y,z)                      : 8 7 7


CFC-RXMC parameters
===========================================================================
Number of reactions: 0


Rattle parameters
===========================================================================
Distance constraint type: r^2-r^2_0
Bend angle constraint type: theta-theta_0
Dihedral angle constraint type: phi-phi_0
Inversion-bend angle constraint type: chi-chi_0
Out-of-plane distance constraint type: r-r_0


Spectra parameters
===========================================================================
Compute normal modes: no


Minimization parameters
===========================================================================
Generalized coordinates are: Cartesian center-of-mass, elements of the orientational matrix p1,p2,p3 and strain
Potential derivatives are evaluated: analytically
Translation of the system is removed from the generalized Hessian: no
Rotation of the system is removed from the generalized Hessian: no
Maximum step-length: 0.3
Convergence factor: 1
Maximum number of minimization steps: 10000
Use gradients in the line-minimizations: yes
RMS gradient tolerance: 1e-06
Maximum gradient tolerance: 1e-06

Distance constraints: 0
Angle constraints: 0
Dihedral constraints: 0

Improper dihedral constraints: 0

Inversion-bend constraints: 0

Out-of-plane constraints: 0

Harmonic distance constraints: 0
Harmonic angle constraints: 0
Harmonic dihedral constraints: 0

Dihedral mid-point measurements: 0

All framework atoms are fixed

Fixed adsorbate atoms:  
Fixed adsorbate groups (center-of-mass):  
Fixed adsorbate groups (orientation):  

Fixed cation atoms:  
Fixed cation groups (center-of-mass):  
Fixed cation groups (orientation):  


dcTST parameters
===========================================================================
Free energy profiles computed: no
Free energy profiles written every 5000 cycles
Free energy mapping: mapped to a,b,c-coordinates
BarrierPosition:       0.0000000000       0.0000000000       0.0000000000
BarrierNormal:         0.0000000000       0.0000000000       0.0000000000
Start with a molecule on top of the barrier: no
Maximum distance to barrier (e.g. distance to minumum free energy):       0.0000000000 [A]
Maximum trajectory time:      10.0000000000 [ps]
Each configuration is used with 5 different initial velocities


Cbmc parameters
===========================================================================
Biasing method: using only the VDW part
Number of trial positions:                                       10
Number of trial positions (reinsertion):                         10
Number of trial positions (partial reinsertion):                 10
Number of trial positions (identity-change):                     10
Number of trial positions (Gibbs particle transfer):             10
Number of trial positions (insertion/deletion):                  10
Number of trial positions (Widom insertion):                     10
Number of trial positions coupled Torsion-selection:             100
Number of trial positions first bead:                            10
Number of trial positions first bead (reinsertion):              10
Number of trial positions first bead (partial reinsertion):      10
Number of trial positions first bead (identity-change):          10
Number of trial positions first bead (Gibbs particle transfer):  10
Number of trial positions first bead (insertion/deletion):       10
Number of trial positions first bead (Widom insertion):          10
Number of trial moves per open bead:                             150
Target acceptance ratio small-mc scheme:                         0.400000
Energy overlap criteria:                                         1e+07
Minimal Rosenbluth factor:                                       1e-150


Pseudo atoms: 65
===========================================================================
Pseudo Atom[   0] Name UNIT     Oxidation:          Element: H    pdb-name: H    Scat. Types:   1   1 Mass=1.000000000  B-factor:0.000   
                 Charge=1.000000000          Polarization=0.000000000  [A^3] (considered a charged atom and no polarization)  Interactions: yes
                 Anisotropic factor:    0.000 [-] (Absolute), Radius:    1.000 [A], Framework-atom:  no
Pseudo Atom[   1] Name He       Oxidation: +0       Element: He   pdb-name: He   Scat. Types:   3   2 Mass=4.002602000  B-factor:1.000   
                 Charge=0.000000000          Polarization=0.000000000  [A^3] (considered a chargeless atom and no polarization)  Interactions: yes
                 Anisotropic factor:    0.000 [-] (Relative), Radius:    1.000 [A], Framework-atom:  no
Pseudo Atom[   2] Name Ar       Oxidation: +0       Element: Ar   pdb-name: Ar   Scat. Types:  19  18 Mass=39.948000000 B-factor:1.000   
                 Charge=0.000000000          Polarization=0.000000000  [A^3] (considered a chargeless atom and no polarization)  Interactions: yes
                 Anisotropic factor:    0.000 [-] (Relative), Radius:    0.700 [A], Framework-atom:  no
Pseudo Atom[   3] Name CH4      Oxidation: +0       Element: C    pdb-name: C    Scat. Types:   7   6 Mass=16.042460000 B-factor:1.000   
                 Charge=0.000000000          Polarization=0.000000000  [A^3] (considered a chargeless atom and no polarization)  Interactions: yes
                 Anisotropic factor:    0.000 [-] (Relative), Radius:    1.000 [A], Framework-atom:  no
Pseudo Atom[   4] Name C_co2    Oxidation: +0       Element: C    pdb-name: C    Scat. Types:   7   6 Mass=12.000000000 B-factor:1.000   
                 Charge=0.651200000          Polarization=0.000000000  [A^3] (considered a charged atom and no polarization)  Interactions: yes
                 Anisotropic factor:    0.000 [-] (Relative), Radius:    0.720 [A], Framework-atom:  no
Pseudo Atom[   5] Name O_co2    Oxidation: +0       Element: O    pdb-name: O    Scat. Types:   9   8 Mass=15.999400000 B-factor:1.000   
                 Charge=-0.325600000         Polarization=0.000000000  [A^3] (considered a charged atom and no polarization)  Interactions: yes
                 Anisotropic factor:    0.000 [-] (Relative), Radius:    0.680 [A], Framework-atom:  no
Pseudo Atom[   6] Name N_n2     Oxidation: +0       Element: N    pdb-name: N    Scat. Types:   8   7 Mass=14.006740000 B-factor:1.000   
                 Charge=-0.405000000         Polarization=0.000000000  [A^3] (considered a charged atom and no polarization)  Interactions: yes
                 Anisotropic factor:    0.000 [-] (Relative), Radius:    0.700 [A], Framework-atom:  no
Pseudo Atom[   7] Name N_com    Oxidation: +0       Element: -    pdb-name: N    Scat. Types:   0   7 Mass=0.000000000  B-factor:1.000   
                 Charge=0.810000000          Polarization=0.000000000  [A^3] (considered a charged atom and no polarization)  Interactions: yes
                 Anisotropic factor:    0.000 [-] (Relative), Radius:    0.700 [A], Framework-atom:  no
Pseudo Atom[   8] Name N_nh3    Oxidation: +0       Element: N    pdb-name: N    Scat. Types:   8   7 Mass=14.006740000 B-factor:1.000   
                 Charge=-1.020000000         Polarization=0.000000000  [A^3] (considered a charged atom and no polarization)  Interactions: yes
                 Anisotropic factor:    0.000 [-] (Relative), Radius:    1.550 [A], Framework-atom:  no
Pseudo Atom[   9] Name H_nh3    Oxidation: +0       Element: H    pdb-name: H    Scat. Types:   1   1 Mass=1.007940000  B-factor:1.000   
                 Charge=0.340000000          Polarization=0.000000000  [A^3] (considered a charged atom and no polarization)  Interactions: yes
                 Anisotropic factor:    0.000 [-] (Relative), Radius:    0.500 [A], Framework-atom:  no
Pseudo Atom[  10] Name C0       Oxidation:          Element: C    pdb-name: C    Scat. Types:   7   6 Mass=12.010735897 B-factor:0.000   
                 Charge=-0.120301000   (av)  Polarization=1.760000000  [A^3] (considered a charged atom and no polarization)  Interactions: yes
                 Anisotropic factor:    0.000 [-] (Absolute), Radius:    0.750 [A], Framework-atom: yes (charge from structure file)
Pseudo Atom[  11] Name C1       Oxidation:          Element: C    pdb-name: C    Scat. Types:   7   6 Mass=12.010735897 B-factor:0.000   
                 Charge=0.387745000    (av)  Polarization=1.760000000  [A^3] (considered a charged atom and no polarization)  Interactions: yes
                 Anisotropic factor:    0.000 [-] (Absolute), Radius:    0.750 [A], Framework-atom: yes (charge from structure file)
Pseudo Atom[  12] Name C2       Oxidation:          Element: C    pdb-name: C    Scat. Types:   7   6 Mass=12.010735897 B-factor:0.000   
                 Charge=0.027813000    (av)  Polarization=1.760000000  [A^3] (considered a charged atom and no polarization)  Interactions: yes
                 Anisotropic factor:    0.000 [-] (Absolute), Radius:    0.750 [A], Framework-atom: yes (charge from structure file)
Pseudo Atom[  13] Name C3       Oxidation:          Element: C    pdb-name: C    Scat. Types:   7   6 Mass=12.010735897 B-factor:0.000   
                 Charge=0.127538000    (av)  Polarization=1.760000000  [A^3] (considered a charged atom and no polarization)  Interactions: yes
                 Anisotropic factor:    0.000 [-] (Absolute), Radius:    0.750 [A], Framework-atom: yes (charge from structure file)
Pseudo Atom[  14] Name C4       Oxidation:          Element: C    pdb-name: C    Scat. Types:   7   6 Mass=12.010735897 B-factor:0.000   
                 Charge=-0.021772000   (av)  Polarization=1.760000000  [A^3] (considered a charged atom and no polarization)  Interactions: yes
                 Anisotropic factor:    0.000 [-] (Absolute), Radius:    0.750 [A], Framework-atom: yes (charge from structure file)
Pseudo Atom[  15] Name C5       Oxidation:          Element: C    pdb-name: C    Scat. Types:   7   6 Mass=12.010735897 B-factor:0.000   
                 Charge=0.023827000    (av)  Polarization=1.760000000  [A^3] (considered a charged atom and no polarization)  Interactions: yes
                 Anisotropic factor:    0.000 [-] (Absolute), Radius:    0.750 [A], Framework-atom: yes (charge from structure file)
Pseudo Atom[  16] Name C6       Oxidation:          Element: C    pdb-name: C    Scat. Types:   7   6 Mass=12.010735897 B-factor:0.000   
                 Charge=-0.033550000   (av)  Polarization=1.760000000  [A^3] (considered a charged atom and no polarization)  Interactions: yes
                 Anisotropic factor:    0.000 [-] (Absolute), Radius:    0.750 [A], Framework-atom: yes (charge from structure file)
Pseudo Atom[  17] Name C7       Oxidation:          Element: C    pdb-name: C    Scat. Types:   7   6 Mass=12.010735897 B-factor:0.000   
                 Charge=0.066023000    (av)  Polarization=1.760000000  [A^3] (considered a charged atom and no polarization)  Interactions: yes
                 Anisotropic factor:    0.000 [-] (Absolute), Radius:    0.750 [A], Framework-atom: yes (charge from structure file)
Pseudo Atom[  18] Name C8       Oxidation:          Element: C    pdb-name: C    Scat. Types:   7   6 Mass=12.010735897 B-factor:0.000   
                 Charge=0.003027000    (av)  Polarization=1.760000000  [A^3] (considered a charged atom and no polarization)  Interactions: yes
                 Anisotropic factor:    0.000 [-] (Absolute), Radius:    0.750 [A], Framework-atom: yes (charge from structure file)
Pseudo Atom[  19] Name C9       Oxidation:          Element: C    pdb-name: C    Scat. Types:   7   6 Mass=12.010735897 B-factor:0.000   
                 Charge=-0.028865000   (av)  Polarization=1.760000000  [A^3] (considered a charged atom and no polarization)  Interactions: yes
                 Anisotropic factor:    0.000 [-] (Absolute), Radius:    0.750 [A], Framework-atom: yes (charge from structure file)
Pseudo Atom[  20] Name C10      Oxidation:          Element: C    pdb-name: C    Scat. Types:   7   6 Mass=12.010735897 B-factor:0.000   
                 Charge=0.009763000    (av)  Polarization=1.760000000  [A^3] (considered a charged atom and no polarization)  Interactions: yes
                 Anisotropic factor:    0.000 [-] (Absolute), Radius:    0.750 [A], Framework-atom: yes (charge from structure file)
Pseudo Atom[  21] Name C11      Oxidation:          Element: C    pdb-name: C    Scat. Types:   7   6 Mass=12.010735897 B-factor:0.000   
                 Charge=0.033251000    (av)  Polarization=1.760000000  [A^3] (considered a charged atom and no polarization)  Interactions: yes
                 Anisotropic factor:    0.000 [-] (Absolute), Radius:    0.750 [A], Framework-atom: yes (charge from structure file)
Pseudo Atom[  22] Name C12      Oxidation:          Element: C    pdb-name: C    Scat. Types:   7   6 Mass=12.010735897 B-factor:0.000   
                 Charge=-0.259421000   (av)  Polarization=1.760000000  [A^3] (considered a charged atom and no polarization)  Interactions: yes
                 Anisotropic factor:    0.000 [-] (Absolute), Radius:    0.750 [A], Framework-atom: yes (charge from structure file)
Pseudo Atom[  23] Name C13      Oxidation:          Element: C    pdb-name: C    Scat. Types:   7   6 Mass=12.010735897 B-factor:0.000   
                 Charge=0.107447000    (av)  Polarization=1.760000000  [A^3] (considered a charged atom and no polarization)  Interactions: yes
                 Anisotropic factor:    0.000 [-] (Absolute), Radius:    0.750 [A], Framework-atom: yes (charge from structure file)
Pseudo Atom[  24] Name C14      Oxidation:          Element: C    pdb-name: C    Scat. Types:   7   6 Mass=12.010735897 B-factor:0.000   
                 Charge=0.376174000    (av)  Polarization=1.760000000  [A^3] (considered a charged atom and no polarization)  Interactions: yes
                 Anisotropic factor:    0.000 [-] (Absolute), Radius:    0.750 [A], Framework-atom: yes (charge from structure file)
Pseudo Atom[  25] Name C15      Oxidation:          Element: C    pdb-name: C    Scat. Types:   7   6 Mass=12.010735897 B-factor:0.000   
                 Charge=0.194856000    (av)  Polarization=1.760000000  [A^3] (considered a charged atom and no polarization)  Interactions: yes
                 Anisotropic factor:    0.000 [-] (Absolute), Radius:    0.750 [A], Framework-atom: yes (charge from structure file)
Pseudo Atom[  26] Name C16      Oxidation:          Element: C    pdb-name: C    Scat. Types:   7   6 Mass=12.010735897 B-factor:0.000   
                 Charge=-0.052878000   (av)  Polarization=1.760000000  [A^3] (considered a charged atom and no polarization)  Interactions: yes
                 Anisotropic factor:    0.000 [-] (Absolute), Radius:    0.750 [A], Framework-atom: yes (charge from structure file)
Pseudo Atom[  27] Name C17      Oxidation:          Element: C    pdb-name: C    Scat. Types:   7   6 Mass=12.010735897 B-factor:0.000   
                 Charge=0.088783000    (av)  Polarization=1.760000000  [A^3] (considered a charged atom and no polarization)  Interactions: yes
                 Anisotropic factor:    0.000 [-] (Absolute), Radius:    0.750 [A], Framework-atom: yes (charge from structure file)
Pseudo Atom[  28] Name C18      Oxidation:          Element: C    pdb-name: C    Scat. Types:   7   6 Mass=12.010735897 B-factor:0.000   
                 Charge=0.038076000    (av)  Polarization=1.760000000  [A^3] (considered a charged atom and no polarization)  Interactions: yes
                 Anisotropic factor:    0.000 [-] (Absolute), Radius:    0.750 [A], Framework-atom: yes (charge from structure file)
Pseudo Atom[  29] Name C19      Oxidation:          Element: C    pdb-name: C    Scat. Types:   7   6 Mass=12.010735897 B-factor:0.000   
                 Charge=0.416472000    (av)  Polarization=1.760000000  [A^3] (considered a charged atom and no polarization)  Interactions: yes
                 Anisotropic factor:    0.000 [-] (Absolute), Radius:    0.750 [A], Framework-atom: yes (charge from structure file)
Pseudo Atom[  30] Name C20      Oxidation:          Element: C    pdb-name: C    Scat. Types:   7   6 Mass=12.010735897 B-factor:0.000   
                 Charge=0.146346000    (av)  Polarization=1.760000000  [A^3] (considered a charged atom and no polarization)  Interactions: yes
                 Anisotropic factor:    0.000 [-] (Absolute), Radius:    0.750 [A], Framework-atom: yes (charge from structure file)
Pseudo Atom[  31] Name C21      Oxidation:          Element: C    pdb-name: C    Scat. Types:   7   6 Mass=12.010735897 B-factor:0.000   
                 Charge=-0.349287000   (av)  Polarization=1.760000000  [A^3] (considered a charged atom and no polarization)  Interactions: yes
                 Anisotropic factor:    0.000 [-] (Absolute), Radius:    0.750 [A], Framework-atom: yes (charge from structure file)
Pseudo Atom[  32] Name C22      Oxidation:          Element: C    pdb-name: C    Scat. Types:   7   6 Mass=12.010735897 B-factor:0.000   
                 Charge=0.021032000    (av)  Polarization=1.760000000  [A^3] (considered a charged atom and no polarization)  Interactions: yes
                 Anisotropic factor:    0.000 [-] (Absolute), Radius:    0.750 [A], Framework-atom: yes (charge from structure file)
Pseudo Atom[  33] Name C23      Oxidation:          Element: C    pdb-name: C    Scat. Types:   7   6 Mass=12.010735897 B-factor:0.000   
                 Charge=-0.121930000   (av)  Polarization=1.760000000  [A^3] (considered a charged atom and no polarization)  Interactions: yes
                 Anisotropic factor:    0.000 [-] (Absolute), Radius:    0.750 [A], Framework-atom: yes (charge from structure file)
Pseudo Atom[  34] Name C24      Oxidation:          Element: C    pdb-name: C    Scat. Types:   7   6 Mass=12.010735897 B-factor:0.000   
                 Charge=-0.105676000   (av)  Polarization=1.760000000  [A^3] (considered a charged atom and no polarization)  Interactions: yes
                 Anisotropic factor:    0.000 [-] (Absolute), Radius:    0.750 [A], Framework-atom: yes (charge from structure file)
Pseudo Atom[  35] Name H25      Oxidation:          Element: H    pdb-name: H    Scat. Types:   1   1 Mass=1.007940754  B-factor:0.000   
                 Charge=0.077494000    (av)  Polarization=0.666793000  [A^3] (considered a charged atom and no polarization)  Interactions: yes
                 Anisotropic factor:    0.000 [-] (Absolute), Radius:    0.320 [A], Framework-atom: yes (charge from structure file)
Pseudo Atom[  36] Name H26      Oxidation:          Element: H    pdb-name: H    Scat. Types:   1   1 Mass=1.007940754  B-factor:0.000   
                 Charge=0.058792000    (av)  Polarization=0.666793000  [A^3] (considered a charged atom and no polarization)  Interactions: yes
                 Anisotropic factor:    0.000 [-] (Absolute), Radius:    0.320 [A], Framework-atom: yes (charge from structure file)
Pseudo Atom[  37] Name H27      Oxidation:          Element: H    pdb-name: H    Scat. Types:   1   1 Mass=1.007940754  B-factor:0.000   
                 Charge=0.075533000    (av)  Polarization=0.666793000  [A^3] (considered a charged atom and no polarization)  Interactions: yes
                 Anisotropic factor:    0.000 [-] (Absolute), Radius:    0.320 [A], Framework-atom: yes (charge from structure file)
Pseudo Atom[  38] Name H28      Oxidation:          Element: H    pdb-name: H    Scat. Types:   1   1 Mass=1.007940754  B-factor:0.000   
                 Charge=0.063682000    (av)  Polarization=0.666793000  [A^3] (considered a charged atom and no polarization)  Interactions: yes
                 Anisotropic factor:    0.000 [-] (Absolute), Radius:    0.320 [A], Framework-atom: yes (charge from structure file)
Pseudo Atom[  39] Name H29      Oxidation:          Element: H    pdb-name: H    Scat. Types:   1   1 Mass=1.007940754  B-factor:0.000   
                 Charge=0.043849000    (av)  Polarization=0.666793000  [A^3] (considered a charged atom and no polarization)  Interactions: yes
                 Anisotropic factor:    0.000 [-] (Absolute), Radius:    0.320 [A], Framework-atom: yes (charge from structure file)
Pseudo Atom[  40] Name H30      Oxidation:          Element: H    pdb-name: H    Scat. Types:   1   1 Mass=1.007940754  B-factor:0.000   
                 Charge=0.051321000    (av)  Polarization=0.666793000  [A^3] (considered a charged atom and no polarization)  Interactions: yes
                 Anisotropic factor:    0.000 [-] (Absolute), Radius:    0.320 [A], Framework-atom: yes (charge from structure file)
Pseudo Atom[  41] Name H31      Oxidation:          Element: H    pdb-name: H    Scat. Types:   1   1 Mass=1.007940754  B-factor:0.000   
                 Charge=0.077894000    (av)  Polarization=0.666793000  [A^3] (considered a charged atom and no polarization)  Interactions: yes
                 Anisotropic factor:    0.000 [-] (Absolute), Radius:    0.320 [A], Framework-atom: yes (charge from structure file)
Pseudo Atom[  42] Name H32      Oxidation:          Element: H    pdb-name: H    Scat. Types:   1   1 Mass=1.007940754  B-factor:0.000   
                 Charge=-0.041172000   (av)  Polarization=0.666793000  [A^3] (considered a charged atom and no polarization)  Interactions: yes
                 Anisotropic factor:    0.000 [-] (Absolute), Radius:    0.320 [A], Framework-atom: yes (charge from structure file)
Pseudo Atom[  43] Name H33      Oxidation:          Element: H    pdb-name: H    Scat. Types:   1   1 Mass=1.007940754  B-factor:0.000   
                 Charge=0.059226000    (av)  Polarization=0.666793000  [A^3] (considered a charged atom and no polarization)  Interactions: yes
                 Anisotropic factor:    0.000 [-] (Absolute), Radius:    0.320 [A], Framework-atom: yes (charge from structure file)
Pseudo Atom[  44] Name H34      Oxidation:          Element: H    pdb-name: H    Scat. Types:   1   1 Mass=1.007940754  B-factor:0.000   
                 Charge=0.049835000    (av)  Polarization=0.666793000  [A^3] (considered a charged atom and no polarization)  Interactions: yes
                 Anisotropic factor:    0.000 [-] (Absolute), Radius:    0.320 [A], Framework-atom: yes (charge from structure file)
Pseudo Atom[  45] Name H35      Oxidation:          Element: H    pdb-name: H    Scat. Types:   1   1 Mass=1.007940754  B-factor:0.000   
                 Charge=0.135716000    (av)  Polarization=0.666793000  [A^3] (considered a charged atom and no polarization)  Interactions: yes
                 Anisotropic factor:    0.000 [-] (Absolute), Radius:    0.320 [A], Framework-atom: yes (charge from structure file)
Pseudo Atom[  46] Name N36      Oxidation:          Element: N    pdb-name: N    Scat. Types:   8   7 Mass=14.006703212 B-factor:0.000   
                 Charge=-0.135773000   (av)  Polarization=1.100000000  [A^3] (considered a charged atom and no polarization)  Interactions: yes
                 Anisotropic factor:    0.000 [-] (Absolute), Radius:    0.710 [A], Framework-atom: yes (charge from structure file)
Pseudo Atom[  47] Name N37      Oxidation:          Element: N    pdb-name: N    Scat. Types:   8   7 Mass=14.006703212 B-factor:0.000   
                 Charge=-0.041580000   (av)  Polarization=1.100000000  [A^3] (considered a charged atom and no polarization)  Interactions: yes
                 Anisotropic factor:    0.000 [-] (Absolute), Radius:    0.710 [A], Framework-atom: yes (charge from structure file)
Pseudo Atom[  48] Name N38      Oxidation:          Element: N    pdb-name: N    Scat. Types:   8   7 Mass=14.006703212 B-factor:0.000   
                 Charge=-0.083692000   (av)  Polarization=1.100000000  [A^3] (considered a charged atom and no polarization)  Interactions: yes
                 Anisotropic factor:    0.000 [-] (Absolute), Radius:    0.710 [A], Framework-atom: yes (charge from structure file)
Pseudo Atom[  49] Name N39      Oxidation:          Element: N    pdb-name: N    Scat. Types:   8   7 Mass=14.006703212 B-factor:0.000   
                 Charge=-0.226564000   (av)  Polarization=1.100000000  [A^3] (considered a charged atom and no polarization)  Interactions: yes
                 Anisotropic factor:    0.000 [-] (Absolute), Radius:    0.710 [A], Framework-atom: yes (charge from structure file)
Pseudo Atom[  50] Name N40      Oxidation:          Element: N    pdb-name: N    Scat. Types:   8   7 Mass=14.006703212 B-factor:0.000   
                 Charge=-0.039173000   (av)  Polarization=1.100000000  [A^3] (considered a charged atom and no polarization)  Interactions: yes
                 Anisotropic factor:    0.000 [-] (Absolute), Radius:    0.710 [A], Framework-atom: yes (charge from structure file)
Pseudo Atom[  51] Name O41      Oxidation:          Element: O    pdb-name: O    Scat. Types:   9   8 Mass=15.999404927 B-factor:0.000   
                 Charge=-0.229345000   (av)  Polarization=0.802000000  [A^3] (considered a charged atom and no polarization)  Interactions: yes
                 Anisotropic factor:    0.000 [-] (Absolute), Radius:    0.640 [A], Framework-atom: yes (charge from structure file)
Pseudo Atom[  52] Name O42      Oxidation:          Element: O    pdb-name: O    Scat. Types:   9   8 Mass=15.999404927 B-factor:0.000   
                 Charge=-0.107922000   (av)  Polarization=0.802000000  [A^3] (considered a charged atom and no polarization)  Interactions: yes
                 Anisotropic factor:    0.000 [-] (Absolute), Radius:    0.640 [A], Framework-atom: yes (charge from structure file)
Pseudo Atom[  53] Name O43      Oxidation:          Element: O    pdb-name: O    Scat. Types:   9   8 Mass=15.999404927 B-factor:0.000   
                 Charge=-0.753098000   (av)  Polarization=0.802000000  [A^3] (considered a charged atom and no polarization)  Interactions: yes
                 Anisotropic factor:    0.000 [-] (Absolute), Radius:    0.640 [A], Framework-atom: yes (charge from structure file)
Pseudo Atom[  54] Name O44      Oxidation:          Element: O    pdb-name: O    Scat. Types:   9   8 Mass=15.999404927 B-factor:0.000   
                 Charge=-0.394051000   (av)  Polarization=0.802000000  [A^3] (considered a charged atom and no polarization)  Interactions: yes
                 Anisotropic factor:    0.000 [-] (Absolute), Radius:    0.640 [A], Framework-atom: yes (charge from structure file)
Pseudo Atom[  55] Name O45      Oxidation:          Element: O    pdb-name: O    Scat. Types:   9   8 Mass=15.999404927 B-factor:0.000   
                 Charge=-0.047041000   (av)  Polarization=0.802000000  [A^3] (considered a charged atom and no polarization)  Interactions: yes
                 Anisotropic factor:    0.000 [-] (Absolute), Radius:    0.640 [A], Framework-atom: yes (charge from structure file)
Pseudo Atom[  56] Name O46      Oxidation:          Element: O    pdb-name: O    Scat. Types:   9   8 Mass=15.999404927 B-factor:0.000   
                 Charge=-0.424321000   (av)  Polarization=0.802000000  [A^3] (considered a charged atom and no polarization)  Interactions: yes
                 Anisotropic factor:    0.000 [-] (Absolute), Radius:    0.640 [A], Framework-atom: yes (charge from structure file)
Pseudo Atom[  57] Name O47      Oxidation:          Element: O    pdb-name: O    Scat. Types:   9   8 Mass=15.999404927 B-factor:0.000   
                 Charge=-0.276642000   (av)  Polarization=0.802000000  [A^3] (considered a charged atom and no polarization)  Interactions: yes
                 Anisotropic factor:    0.000 [-] (Absolute), Radius:    0.640 [A], Framework-atom: yes (charge from structure file)
Pseudo Atom[  58] Name O48      Oxidation:          Element: O    pdb-name: O    Scat. Types:   9   8 Mass=15.999404927 B-factor:0.000   
                 Charge=-0.355573000   (av)  Polarization=0.802000000  [A^3] (considered a charged atom and no polarization)  Interactions: yes
                 Anisotropic factor:    0.000 [-] (Absolute), Radius:    0.640 [A], Framework-atom: yes (charge from structure file)
Pseudo Atom[  59] Name O49      Oxidation:          Element: O    pdb-name: O    Scat. Types:   9   8 Mass=15.999404927 B-factor:0.000   
                 Charge=-0.623738000   (av)  Polarization=0.802000000  [A^3] (considered a charged atom and no polarization)  Interactions: yes
                 Anisotropic factor:    0.000 [-] (Absolute), Radius:    0.640 [A], Framework-atom: yes (charge from structure file)
Pseudo Atom[  60] Name O50      Oxidation:          Element: O    pdb-name: O    Scat. Types:   9   8 Mass=15.999404927 B-factor:0.000   
                 Charge=-0.374319000   (av)  Polarization=0.802000000  [A^3] (considered a charged atom and no polarization)  Interactions: yes
                 Anisotropic factor:    0.000 [-] (Absolute), Radius:    0.640 [A], Framework-atom: yes (charge from structure file)
Pseudo Atom[  61] Name O51      Oxidation:          Element: O    pdb-name: O    Scat. Types:   9   8 Mass=15.999404927 B-factor:0.000   
                 Charge=-0.086260000   (av)  Polarization=0.802000000  [A^3] (considered a charged atom and no polarization)  Interactions: yes
                 Anisotropic factor:    0.000 [-] (Absolute), Radius:    0.640 [A], Framework-atom: yes (charge from structure file)
Pseudo Atom[  62] Name O52      Oxidation:          Element: O    pdb-name: O    Scat. Types:   9   8 Mass=15.999404927 B-factor:0.000   
                 Charge=-0.090761000   (av)  Polarization=0.802000000  [A^3] (considered a charged atom and no polarization)  Interactions: yes
                 Anisotropic factor:    0.000 [-] (Absolute), Radius:    0.640 [A], Framework-atom: yes (charge from structure file)
Pseudo Atom[  63] Name Zn53     Oxidation:          Element: Zn   pdb-name: Zn   Scat. Types:  31  30 Mass=65.408728088 B-factor:0.000   
                 Charge=1.407023000    (av)  Polarization=5.750000000  [A^3] (considered a charged atom and no polarization)  Interactions: yes
                 Anisotropic factor:    0.000 [-] (Absolute), Radius:    1.200 [A], Framework-atom: yes (charge from structure file)
Pseudo Atom[  64] Name Zn54     Oxidation:          Element: Zn   pdb-name: Zn   Scat. Types:  31  30 Mass=65.408728088 B-factor:0.000   
                 Charge=1.256173000    (av)  Polarization=5.750000000  [A^3] (considered a charged atom and no polarization)  Interactions: yes
                 Anisotropic factor:    0.000 [-] (Absolute), Radius:    1.200 [A], Framework-atom: yes (charge from structure file)


Forcefield: NH3_GCMC
===========================================================================
Minimal distance: 1
CutOff VDW : 12.000000 (144.000000)
CutOff VDW switching on: 10.800000 (116.640000)
CutOff charge-charge : 12.000000 (144.000000)
CutOff charge-charge switching on: 7.800000 (60.840000)
CutOff charge-bonddipole : 12.000000 (144.000000)
CutOff charge-bondipole switching on: 8.400000 (70.560000)
CutOff bonddipole-bonddipole : 12.000000 (144.000000)
CutOff bonddipole-bondipole switching on: 9.000000 (81.000000)
Polarization is neglected
TailCorrections are used
All potentials are shifted to zero at the Cutoff

General mixing rule: Lorentz-Berthelot mixing rules are used FIRST for cross terms
0 cross terms are overwritten using the individual mixing rules from the file 'force_field_mixing_rules.def'
and then 0 terms are overwritten using the specific interactions from the file 'force_field.def'

The force field and all the interactions:
     He -      He [LENNARD_JONES] p_0/k_B:  10.90000 [K], p_1: 2.64000 [A], shift/k_B:  -0.00494280 [K], tailcorrection: yes
     He -      Ar [LENNARD_JONES] p_0/k_B:  36.13613 [K], p_1: 3.02000 [A], shift/k_B:  -0.03671516 [K], tailcorrection: yes
     He -     CH4 [LENNARD_JONES] p_0/k_B:  40.16466 [K], p_1: 3.18500 [A], shift/k_B:  -0.05614633 [K], tailcorrection: yes
     He -   C_co2 [LENNARD_JONES] p_0/k_B:  17.15517 [K], p_1: 2.72000 [A], shift/k_B:  -0.00930512 [K], tailcorrection: yes
     He -   O_co2 [LENNARD_JONES] p_0/k_B:  29.34451 [K], p_1: 2.84500 [A], shift/k_B:  -0.02084087 [K], tailcorrection: yes
     He -    N_n2 [LENNARD_JONES] p_0/k_B:  19.80909 [K], p_1: 2.97500 [A], shift/k_B:  -0.01839323 [K], tailcorrection: yes
     He -   N_com [ZERO_POTENTIAL]
     He -   N_nh3 [LENNARD_JONES] p_0/k_B:  44.90546 [K], p_1: 3.03000 [A], shift/k_B:  -0.04653876 [K], tailcorrection: yes
     He -   H_nh3 [LENNARD_JONES] p_0/k_B:   0.00000 [K], p_1: 1.32000 [A], shift/k_B:  -0.00000000 [K], tailcorrection: yes
     He -      C0 [LENNARD_JONES] p_0/k_B:  22.83928 [K], p_1: 3.05649 [A], shift/k_B:  -0.02493896 [K], tailcorrection: yes
     He -      C1 [LENNARD_JONES] p_0/k_B:  22.83928 [K], p_1: 3.05649 [A], shift/k_B:  -0.02493896 [K], tailcorrection: yes
     He -      C2 [LENNARD_JONES] p_0/k_B:  22.83928 [K], p_1: 3.05649 [A], shift/k_B:  -0.02493896 [K], tailcorrection: yes
     He -      C3 [LENNARD_JONES] p_0/k_B:  22.83928 [K], p_1: 3.05649 [A], shift/k_B:  -0.02493896 [K], tailcorrection: yes
     He -      C4 [LENNARD_JONES] p_0/k_B:  22.83928 [K], p_1: 3.05649 [A], shift/k_B:  -0.02493896 [K], tailcorrection: yes
     He -      C5 [LENNARD_JONES] p_0/k_B:  22.83928 [K], p_1: 3.05649 [A], shift/k_B:  -0.02493896 [K], tailcorrection: yes
     He -      C6 [LENNARD_JONES] p_0/k_B:  22.83928 [K], p_1: 3.05649 [A], shift/k_B:  -0.02493896 [K], tailcorrection: yes
     He -      C7 [LENNARD_JONES] p_0/k_B:  22.83928 [K], p_1: 3.05649 [A], shift/k_B:  -0.02493896 [K], tailcorrection: yes
     He -      C8 [LENNARD_JONES] p_0/k_B:  22.83928 [K], p_1: 3.05649 [A], shift/k_B:  -0.02493896 [K], tailcorrection: yes
     He -      C9 [LENNARD_JONES] p_0/k_B:  22.83928 [K], p_1: 3.05649 [A], shift/k_B:  -0.02493896 [K], tailcorrection: yes
     He -     C10 [LENNARD_JONES] p_0/k_B:  22.83928 [K], p_1: 3.05649 [A], shift/k_B:  -0.02493896 [K], tailcorrection: yes
     He -     C11 [LENNARD_JONES] p_0/k_B:  22.83928 [K], p_1: 3.05649 [A], shift/k_B:  -0.02493896 [K], tailcorrection: yes
     He -     C12 [LENNARD_JONES] p_0/k_B:  22.83928 [K], p_1: 3.05649 [A], shift/k_B:  -0.02493896 [K], tailcorrection: yes
     He -     C13 [LENNARD_JONES] p_0/k_B:  22.83928 [K], p_1: 3.05649 [A], shift/k_B:  -0.02493896 [K], tailcorrection: yes
     He -     C14 [LENNARD_JONES] p_0/k_B:  22.83928 [K], p_1: 3.05649 [A], shift/k_B:  -0.02493896 [K], tailcorrection: yes
     He -     C15 [LENNARD_JONES] p_0/k_B:  22.83928 [K], p_1: 3.05649 [A], shift/k_B:  -0.02493896 [K], tailcorrection: yes
     He -     C16 [LENNARD_JONES] p_0/k_B:  22.83928 [K], p_1: 3.05649 [A], shift/k_B:  -0.02493896 [K], tailcorrection: yes
     He -     C17 [LENNARD_JONES] p_0/k_B:  22.83928 [K], p_1: 3.05649 [A], shift/k_B:  -0.02493896 [K], tailcorrection: yes
     He -     C18 [LENNARD_JONES] p_0/k_B:  22.83928 [K], p_1: 3.05649 [A], shift/k_B:  -0.02493896 [K], tailcorrection: yes
     He -     C19 [LENNARD_JONES] p_0/k_B:  22.83928 [K], p_1: 3.05649 [A], shift/k_B:  -0.02493896 [K], tailcorrection: yes
     He -     C20 [LENNARD_JONES] p_0/k_B:  22.83928 [K], p_1: 3.05649 [A], shift/k_B:  -0.02493896 [K], tailcorrection: yes
     He -     C21 [LENNARD_JONES] p_0/k_B:  22.83928 [K], p_1: 3.05649 [A], shift/k_B:  -0.02493896 [K], tailcorrection: yes
     He -     C22 [LENNARD_JONES] p_0/k_B:  22.83928 [K], p_1: 3.05649 [A], shift/k_B:  -0.02493896 [K], tailcorrection: yes
     He -     C23 [LENNARD_JONES] p_0/k_B:  22.83928 [K], p_1: 3.05649 [A], shift/k_B:  -0.02493896 [K], tailcorrection: yes
     He -     C24 [LENNARD_JONES] p_0/k_B:  22.83928 [K], p_1: 3.05649 [A], shift/k_B:  -0.02493896 [K], tailcorrection: yes
     He -     H25 [LENNARD_JONES] p_0/k_B:   9.13090 [K], p_1: 2.74321 [A], shift/k_B:  -0.00521169 [K], tailcorrection: yes
     He -     H26 [LENNARD_JONES] p_0/k_B:   9.13090 [K], p_1: 2.74321 [A], shift/k_B:  -0.00521169 [K], tailcorrection: yes
     He -     H27 [LENNARD_JONES] p_0/k_B:   9.13090 [K], p_1: 2.74321 [A], shift/k_B:  -0.00521169 [K], tailcorrection: yes
     He -     H28 [LENNARD_JONES] p_0/k_B:   9.13090 [K], p_1: 2.74321 [A], shift/k_B:  -0.00521169 [K], tailcorrection: yes
     He -     H29 [LENNARD_JONES] p_0/k_B:   9.13090 [K], p_1: 2.74321 [A], shift/k_B:  -0.00521169 [K], tailcorrection: yes
     He -     H30 [LENNARD_JONES] p_0/k_B:   9.13090 [K], p_1: 2.74321 [A], shift/k_B:  -0.00521169 [K], tailcorrection: yes
     He -     H31 [LENNARD_JONES] p_0/k_B:   9.13090 [K], p_1: 2.74321 [A], shift/k_B:  -0.00521169 [K], tailcorrection: yes
     He -     H32 [LENNARD_JONES] p_0/k_B:   9.13090 [K], p_1: 2.74321 [A], shift/k_B:  -0.00521169 [K], tailcorrection: yes
     He -     H33 [LENNARD_JONES] p_0/k_B:   9.13090 [K], p_1: 2.74321 [A], shift/k_B:  -0.00521169 [K], tailcorrection: yes
     He -     H34 [LENNARD_JONES] p_0/k_B:   9.13090 [K], p_1: 2.74321 [A], shift/k_B:  -0.00521169 [K], tailcorrection: yes
     He -     H35 [LENNARD_JONES] p_0/k_B:   9.13090 [K], p_1: 2.74321 [A], shift/k_B:  -0.00521169 [K], tailcorrection: yes
     He -     N36 [LENNARD_JONES] p_0/k_B:  20.60452 [K], p_1: 2.95128 [A], shift/k_B:  -0.01823482 [K], tailcorrection: yes
     He -     N37 [LENNARD_JONES] p_0/k_B:  20.60452 [K], p_1: 2.95128 [A], shift/k_B:  -0.01823482 [K], tailcorrection: yes
     He -     N38 [LENNARD_JONES] p_0/k_B:  20.60452 [K], p_1: 2.95128 [A], shift/k_B:  -0.01823482 [K], tailcorrection: yes
     He -     N39 [LENNARD_JONES] p_0/k_B:  20.60452 [K], p_1: 2.95128 [A], shift/k_B:  -0.01823482 [K], tailcorrection: yes
     He -     N40 [LENNARD_JONES] p_0/k_B:  20.60452 [K], p_1: 2.95128 [A], shift/k_B:  -0.01823482 [K], tailcorrection: yes
     He -     O41 [LENNARD_JONES] p_0/k_B:  22.91120 [K], p_1: 2.83657 [A], shift/k_B:  -0.01598491 [K], tailcorrection: yes
     He -     O42 [LENNARD_JONES] p_0/k_B:  22.91120 [K], p_1: 2.83657 [A], shift/k_B:  -0.01598491 [K], tailcorrection: yes
     He -     O43 [LENNARD_JONES] p_0/k_B:  22.91120 [K], p_1: 2.83657 [A], shift/k_B:  -0.01598491 [K], tailcorrection: yes
     He -     O44 [LENNARD_JONES] p_0/k_B:  22.91120 [K], p_1: 2.83657 [A], shift/k_B:  -0.01598491 [K], tailcorrection: yes
     He -     O45 [LENNARD_JONES] p_0/k_B:  22.91120 [K], p_1: 2.83657 [A], shift/k_B:  -0.01598491 [K], tailcorrection: yes
     He -     O46 [LENNARD_JONES] p_0/k_B:  22.91120 [K], p_1: 2.83657 [A], shift/k_B:  -0.01598491 [K], tailcorrection: yes
     He -     O47 [LENNARD_JONES] p_0/k_B:  22.91120 [K], p_1: 2.83657 [A], shift/k_B:  -0.01598491 [K], tailcorrection: yes
     He -     O48 [LENNARD_JONES] p_0/k_B:  22.91120 [K], p_1: 2.83657 [A], shift/k_B:  -0.01598491 [K], tailcorrection: yes
     He -     O49 [LENNARD_JONES] p_0/k_B:  22.91120 [K], p_1: 2.83657 [A], shift/k_B:  -0.01598491 [K], tailcorrection: yes
     He -     O50 [LENNARD_JONES] p_0/k_B:  22.91120 [K], p_1: 2.83657 [A], shift/k_B:  -0.01598491 [K], tailcorrection: yes
     He -     O51 [LENNARD_JONES] p_0/k_B:  22.91120 [K], p_1: 2.83657 [A], shift/k_B:  -0.01598491 [K], tailcorrection: yes
     He -     O52 [LENNARD_JONES] p_0/k_B:  22.91120 [K], p_1: 2.83657 [A], shift/k_B:  -0.01598491 [K], tailcorrection: yes
     He -    Zn53 [LENNARD_JONES] p_0/k_B:  26.07971 [K], p_1: 2.55077 [A], shift/k_B:  -0.00962206 [K], tailcorrection: yes
     He -    Zn54 [LENNARD_JONES] p_0/k_B:  26.07971 [K], p_1: 2.55077 [A], shift/k_B:  -0.00962206 [K], tailcorrection: yes
     Ar -      Ar [LENNARD_JONES] p_0/k_B: 119.80000 [K], p_1: 3.40000 [A], shift/k_B:  -0.24778676 [K], tailcorrection: yes
     Ar -     CH4 [LENNARD_JONES] p_0/k_B: 133.15555 [K], p_1: 3.56500 [A], shift/k_B:  -0.36592351 [K], tailcorrection: yes
     Ar -   C_co2 [LENNARD_JONES] p_0/k_B:  56.87354 [K], p_1: 3.10000 [A], shift/k_B:  -0.06759645 [K], tailcorrection: yes
     Ar -   O_co2 [LENNARD_JONES] p_0/k_B:  97.28412 [K], p_1: 3.22500 [A], shift/k_B:  -0.14656461 [K], tailcorrection: yes
     Ar -    N_n2 [LENNARD_JONES] p_0/k_B:  65.67191 [K], p_1: 3.35500 [A], shift/k_B:  -0.12540067 [K], tailcorrection: yes
     Ar -   N_com [ZERO_POTENTIAL]
     Ar -   N_nh3 [LENNARD_JONES] p_0/k_B: 148.87243 [K], p_1: 3.41000 [A], shift/k_B:  -0.31338942 [K], tailcorrection: yes
     Ar -   H_nh3 [LENNARD_JONES] p_0/k_B:   0.00000 [K], p_1: 1.70000 [A], shift/k_B:  -0.00000000 [K], tailcorrection: yes
     Ar -      C0 [LENNARD_JONES] p_0/k_B:  75.71772 [K], p_1: 3.43649 [A], shift/k_B:  -0.16696472 [K], tailcorrection: yes
     Ar -      C1 [LENNARD_JONES] p_0/k_B:  75.71772 [K], p_1: 3.43649 [A], shift/k_B:  -0.16696472 [K], tailcorrection: yes
     Ar -      C2 [LENNARD_JONES] p_0/k_B:  75.71772 [K], p_1: 3.43649 [A], shift/k_B:  -0.16696472 [K], tailcorrection: yes
     Ar -      C3 [LENNARD_JONES] p_0/k_B:  75.71772 [K], p_1: 3.43649 [A], shift/k_B:  -0.16696472 [K], tailcorrection: yes
     Ar -      C4 [LENNARD_JONES] p_0/k_B:  75.71772 [K], p_1: 3.43649 [A], shift/k_B:  -0.16696472 [K], tailcorrection: yes
     Ar -      C5 [LENNARD_JONES] p_0/k_B:  75.71772 [K], p_1: 3.43649 [A], shift/k_B:  -0.16696472 [K], tailcorrection: yes
     Ar -      C6 [LENNARD_JONES] p_0/k_B:  75.71772 [K], p_1: 3.43649 [A], shift/k_B:  -0.16696472 [K], tailcorrection: yes
     Ar -      C7 [LENNARD_JONES] p_0/k_B:  75.71772 [K], p_1: 3.43649 [A], shift/k_B:  -0.16696472 [K], tailcorrection: yes
     Ar -      C8 [LENNARD_JONES] p_0/k_B:  75.71772 [K], p_1: 3.43649 [A], shift/k_B:  -0.16696472 [K], tailcorrection: yes
     Ar -      C9 [LENNARD_JONES] p_0/k_B:  75.71772 [K], p_1: 3.43649 [A], shift/k_B:  -0.16696472 [K], tailcorrection: yes
     Ar -     C10 [LENNARD_JONES] p_0/k_B:  75.71772 [K], p_1: 3.43649 [A], shift/k_B:  -0.16696472 [K], tailcorrection: yes
     Ar -     C11 [LENNARD_JONES] p_0/k_B:  75.71772 [K], p_1: 3.43649 [A], shift/k_B:  -0.16696472 [K], tailcorrection: yes
     Ar -     C12 [LENNARD_JONES] p_0/k_B:  75.71772 [K], p_1: 3.43649 [A], shift/k_B:  -0.16696472 [K], tailcorrection: yes
     Ar -     C13 [LENNARD_JONES] p_0/k_B:  75.71772 [K], p_1: 3.43649 [A], shift/k_B:  -0.16696472 [K], tailcorrection: yes
     Ar -     C14 [LENNARD_JONES] p_0/k_B:  75.71772 [K], p_1: 3.43649 [A], shift/k_B:  -0.16696472 [K], tailcorrection: yes
     Ar -     C15 [LENNARD_JONES] p_0/k_B:  75.71772 [K], p_1: 3.43649 [A], shift/k_B:  -0.16696472 [K], tailcorrection: yes
     Ar -     C16 [LENNARD_JONES] p_0/k_B:  75.71772 [K], p_1: 3.43649 [A], shift/k_B:  -0.16696472 [K], tailcorrection: yes
     Ar -     C17 [LENNARD_JONES] p_0/k_B:  75.71772 [K], p_1: 3.43649 [A], shift/k_B:  -0.16696472 [K], tailcorrection: yes
     Ar -     C18 [LENNARD_JONES] p_0/k_B:  75.71772 [K], p_1: 3.43649 [A], shift/k_B:  -0.16696472 [K], tailcorrection: yes
     Ar -     C19 [LENNARD_JONES] p_0/k_B:  75.71772 [K], p_1: 3.43649 [A], shift/k_B:  -0.16696472 [K], tailcorrection: yes
     Ar -     C20 [LENNARD_JONES] p_0/k_B:  75.71772 [K], p_1: 3.43649 [A], shift/k_B:  -0.16696472 [K], tailcorrection: yes
     Ar -     C21 [LENNARD_JONES] p_0/k_B:  75.71772 [K], p_1: 3.43649 [A], shift/k_B:  -0.16696472 [K], tailcorrection: yes
     Ar -     C22 [LENNARD_JONES] p_0/k_B:  75.71772 [K], p_1: 3.43649 [A], shift/k_B:  -0.16696472 [K], tailcorrection: yes
     Ar -     C23 [LENNARD_JONES] p_0/k_B:  75.71772 [K], p_1: 3.43649 [A], shift/k_B:  -0.16696472 [K], tailcorrection: yes
     Ar -     C24 [LENNARD_JONES] p_0/k_B:  75.71772 [K], p_1: 3.43649 [A], shift/k_B:  -0.16696472 [K], tailcorrection: yes
     Ar -     H25 [LENNARD_JONES] p_0/k_B:  30.27114 [K], p_1: 3.12321 [A], shift/k_B:  -0.03762473 [K], tailcorrection: yes
     Ar -     H26 [LENNARD_JONES] p_0/k_B:  30.27114 [K], p_1: 3.12321 [A], shift/k_B:  -0.03762473 [K], tailcorrection: yes
     Ar -     H27 [LENNARD_JONES] p_0/k_B:  30.27114 [K], p_1: 3.12321 [A], shift/k_B:  -0.03762473 [K], tailcorrection: yes
     Ar -     H28 [LENNARD_JONES] p_0/k_B:  30.27114 [K], p_1: 3.12321 [A], shift/k_B:  -0.03762473 [K], tailcorrection: yes
     Ar -     H29 [LENNARD_JONES] p_0/k_B:  30.27114 [K], p_1: 3.12321 [A], shift/k_B:  -0.03762473 [K], tailcorrection: yes
     Ar -     H30 [LENNARD_JONES] p_0/k_B:  30.27114 [K], p_1: 3.12321 [A], shift/k_B:  -0.03762473 [K], tailcorrection: yes
     Ar -     H31 [LENNARD_JONES] p_0/k_B:  30.27114 [K], p_1: 3.12321 [A], shift/k_B:  -0.03762473 [K], tailcorrection: yes
     Ar -     H32 [LENNARD_JONES] p_0/k_B:  30.27114 [K], p_1: 3.12321 [A], shift/k_B:  -0.03762473 [K], tailcorrection: yes
     Ar -     H33 [LENNARD_JONES] p_0/k_B:  30.27114 [K], p_1: 3.12321 [A], shift/k_B:  -0.03762473 [K], tailcorrection: yes
     Ar -     H34 [LENNARD_JONES] p_0/k_B:  30.27114 [K], p_1: 3.12321 [A], shift/k_B:  -0.03762473 [K], tailcorrection: yes
     Ar -     H35 [LENNARD_JONES] p_0/k_B:  30.27114 [K], p_1: 3.12321 [A], shift/k_B:  -0.03762473 [K], tailcorrection: yes
     Ar -     N36 [LENNARD_JONES] p_0/k_B:  68.30896 [K], p_1: 3.33128 [A], shift/k_B:  -0.12500236 [K], tailcorrection: yes
     Ar -     N37 [LENNARD_JONES] p_0/k_B:  68.30896 [K], p_1: 3.33128 [A], shift/k_B:  -0.12500236 [K], tailcorrection: yes
     Ar -     N38 [LENNARD_JONES] p_0/k_B:  68.30896 [K], p_1: 3.33128 [A], shift/k_B:  -0.12500236 [K], tailcorrection: yes
     Ar -     N39 [LENNARD_JONES] p_0/k_B:  68.30896 [K], p_1: 3.33128 [A], shift/k_B:  -0.12500236 [K], tailcorrection: yes
     Ar -     N40 [LENNARD_JONES] p_0/k_B:  68.30896 [K], p_1: 3.33128 [A], shift/k_B:  -0.12500236 [K], tailcorrection: yes
     Ar -     O41 [LENNARD_JONES] p_0/k_B:  75.95617 [K], p_1: 3.21657 [A], shift/k_B:  -0.11265139 [K], tailcorrection: yes
     Ar -     O42 [LENNARD_JONES] p_0/k_B:  75.95617 [K], p_1: 3.21657 [A], shift/k_B:  -0.11265139 [K], tailcorrection: yes
     Ar -     O43 [LENNARD_JONES] p_0/k_B:  75.95617 [K], p_1: 3.21657 [A], shift/k_B:  -0.11265139 [K], tailcorrection: yes
     Ar -     O44 [LENNARD_JONES] p_0/k_B:  75.95617 [K], p_1: 3.21657 [A], shift/k_B:  -0.11265139 [K], tailcorrection: yes
     Ar -     O45 [LENNARD_JONES] p_0/k_B:  75.95617 [K], p_1: 3.21657 [A], shift/k_B:  -0.11265139 [K], tailcorrection: yes
     Ar -     O46 [LENNARD_JONES] p_0/k_B:  75.95617 [K], p_1: 3.21657 [A], shift/k_B:  -0.11265139 [K], tailcorrection: yes
     Ar -     O47 [LENNARD_JONES] p_0/k_B:  75.95617 [K], p_1: 3.21657 [A], shift/k_B:  -0.11265139 [K], tailcorrection: yes
     Ar -     O48 [LENNARD_JONES] p_0/k_B:  75.95617 [K], p_1: 3.21657 [A], shift/k_B:  -0.11265139 [K], tailcorrection: yes
     Ar -     O49 [LENNARD_JONES] p_0/k_B:  75.95617 [K], p_1: 3.21657 [A], shift/k_B:  -0.11265139 [K], tailcorrection: yes
     Ar -     O50 [LENNARD_JONES] p_0/k_B:  75.95617 [K], p_1: 3.21657 [A], shift/k_B:  -0.11265139 [K], tailcorrection: yes
     Ar -     O51 [LENNARD_JONES] p_0/k_B:  75.95617 [K], p_1: 3.21657 [A], shift/k_B:  -0.11265139 [K], tailcorrection: yes
     Ar -     O52 [LENNARD_JONES] p_0/k_B:  75.95617 [K], p_1: 3.21657 [A], shift/k_B:  -0.11265139 [K], tailcorrection: yes
     Ar -    Zn53 [LENNARD_JONES] p_0/k_B:  86.46054 [K], p_1: 2.93077 [A], shift/k_B:  -0.07338260 [K], tailcorrection: yes
     Ar -    Zn54 [LENNARD_JONES] p_0/k_B:  86.46054 [K], p_1: 2.93077 [A], shift/k_B:  -0.07338260 [K], tailcorrection: yes
    CH4 -     CH4 [LENNARD_JONES] p_0/k_B: 148.00000 [K], p_1: 3.73000 [A], shift/k_B:  -0.53345200 [K], tailcorrection: yes
    CH4 -   C_co2 [LENNARD_JONES] p_0/k_B:  63.21392 [K], p_1: 3.26500 [A], shift/k_B:  -0.10254350 [K], tailcorrection: yes
    CH4 -   O_co2 [LENNARD_JONES] p_0/k_B: 108.12955 [K], p_1: 3.39000 [A], shift/k_B:  -0.21973250 [K], tailcorrection: yes
    CH4 -    N_n2 [LENNARD_JONES] p_0/k_B:  72.99315 [K], p_1: 3.52000 [A], shift/k_B:  -0.18588051 [K], tailcorrection: yes
    CH4 -   N_com [ZERO_POTENTIAL]
    CH4 -   N_nh3 [LENNARD_JONES] p_0/k_B: 165.46903 [K], p_1: 3.57500 [A], shift/k_B:  -0.46242550 [K], tailcorrection: yes
    CH4 -   H_nh3 [LENNARD_JONES] p_0/k_B:   0.00000 [K], p_1: 1.86500 [A], shift/k_B:  -0.00000000 [K], tailcorrection: yes
    CH4 -      C0 [LENNARD_JONES] p_0/k_B:  84.15888 [K], p_1: 3.60149 [A], shift/k_B:  -0.24583962 [K], tailcorrection: yes
    CH4 -      C1 [LENNARD_JONES] p_0/k_B:  84.15888 [K], p_1: 3.60149 [A], shift/k_B:  -0.24583962 [K], tailcorrection: yes
    CH4 -      C2 [LENNARD_JONES] p_0/k_B:  84.15888 [K], p_1: 3.60149 [A], shift/k_B:  -0.24583962 [K], tailcorrection: yes
    CH4 -      C3 [LENNARD_JONES] p_0/k_B:  84.15888 [K], p_1: 3.60149 [A], shift/k_B:  -0.24583962 [K], tailcorrection: yes
    CH4 -      C4 [LENNARD_JONES] p_0/k_B:  84.15888 [K], p_1: 3.60149 [A], shift/k_B:  -0.24583962 [K], tailcorrection: yes
    CH4 -      C5 [LENNARD_JONES] p_0/k_B:  84.15888 [K], p_1: 3.60149 [A], shift/k_B:  -0.24583962 [K], tailcorrection: yes
    CH4 -      C6 [LENNARD_JONES] p_0/k_B:  84.15888 [K], p_1: 3.60149 [A], shift/k_B:  -0.24583962 [K], tailcorrection: yes
    CH4 -      C7 [LENNARD_JONES] p_0/k_B:  84.15888 [K], p_1: 3.60149 [A], shift/k_B:  -0.24583962 [K], tailcorrection: yes
    CH4 -      C8 [LENNARD_JONES] p_0/k_B:  84.15888 [K], p_1: 3.60149 [A], shift/k_B:  -0.24583962 [K], tailcorrection: yes
    CH4 -      C9 [LENNARD_JONES] p_0/k_B:  84.15888 [K], p_1: 3.60149 [A], shift/k_B:  -0.24583962 [K], tailcorrection: yes
    CH4 -     C10 [LENNARD_JONES] p_0/k_B:  84.15888 [K], p_1: 3.60149 [A], shift/k_B:  -0.24583962 [K], tailcorrection: yes
    CH4 -     C11 [LENNARD_JONES] p_0/k_B:  84.15888 [K], p_1: 3.60149 [A], shift/k_B:  -0.24583962 [K], tailcorrection: yes
    CH4 -     C12 [LENNARD_JONES] p_0/k_B:  84.15888 [K], p_1: 3.60149 [A], shift/k_B:  -0.24583962 [K], tailcorrection: yes
    CH4 -     C13 [LENNARD_JONES] p_0/k_B:  84.15888 [K], p_1: 3.60149 [A], shift/k_B:  -0.24583962 [K], tailcorrection: yes
    CH4 -     C14 [LENNARD_JONES] p_0/k_B:  84.15888 [K], p_1: 3.60149 [A], shift/k_B:  -0.24583962 [K], tailcorrection: yes
    CH4 -     C15 [LENNARD_JONES] p_0/k_B:  84.15888 [K], p_1: 3.60149 [A], shift/k_B:  -0.24583962 [K], tailcorrection: yes
    CH4 -     C16 [LENNARD_JONES] p_0/k_B:  84.15888 [K], p_1: 3.60149 [A], shift/k_B:  -0.24583962 [K], tailcorrection: yes
    CH4 -     C17 [LENNARD_JONES] p_0/k_B:  84.15888 [K], p_1: 3.60149 [A], shift/k_B:  -0.24583962 [K], tailcorrection: yes
    CH4 -     C18 [LENNARD_JONES] p_0/k_B:  84.15888 [K], p_1: 3.60149 [A], shift/k_B:  -0.24583962 [K], tailcorrection: yes
    CH4 -     C19 [LENNARD_JONES] p_0/k_B:  84.15888 [K], p_1: 3.60149 [A], shift/k_B:  -0.24583962 [K], tailcorrection: yes
    CH4 -     C20 [LENNARD_JONES] p_0/k_B:  84.15888 [K], p_1: 3.60149 [A], shift/k_B:  -0.24583962 [K], tailcorrection: yes
    CH4 -     C21 [LENNARD_JONES] p_0/k_B:  84.15888 [K], p_1: 3.60149 [A], shift/k_B:  -0.24583962 [K], tailcorrection: yes
    CH4 -     C22 [LENNARD_JONES] p_0/k_B:  84.15888 [K], p_1: 3.60149 [A], shift/k_B:  -0.24583962 [K], tailcorrection: yes
    CH4 -     C23 [LENNARD_JONES] p_0/k_B:  84.15888 [K], p_1: 3.60149 [A], shift/k_B:  -0.24583962 [K], tailcorrection: yes
    CH4 -     C24 [LENNARD_JONES] p_0/k_B:  84.15888 [K], p_1: 3.60149 [A], shift/k_B:  -0.24583962 [K], tailcorrection: yes
    CH4 -     H25 [LENNARD_JONES] p_0/k_B:  33.64583 [K], p_1: 3.28821 [A], shift/k_B:  -0.05694782 [K], tailcorrection: yes
    CH4 -     H26 [LENNARD_JONES] p_0/k_B:  33.64583 [K], p_1: 3.28821 [A], shift/k_B:  -0.05694782 [K], tailcorrection: yes
    CH4 -     H27 [LENNARD_JONES] p_0/k_B:  33.64583 [K], p_1: 3.28821 [A], shift/k_B:  -0.05694782 [K], tailcorrection: yes
    CH4 -     H28 [LENNARD_JONES] p_0/k_B:  33.64583 [K], p_1: 3.28821 [A], shift/k_B:  -0.05694782 [K], tailcorrection: yes
    CH4 -     H29 [LENNARD_JONES] p_0/k_B:  33.64583 [K], p_1: 3.28821 [A], shift/k_B:  -0.05694782 [K], tailcorrection: yes
    CH4 -     H30 [LENNARD_JONES] p_0/k_B:  33.64583 [K], p_1: 3.28821 [A], shift/k_B:  -0.05694782 [K], tailcorrection: yes
    CH4 -     H31 [LENNARD_JONES] p_0/k_B:  33.64583 [K], p_1: 3.28821 [A], shift/k_B:  -0.05694782 [K], tailcorrection: yes
    CH4 -     H32 [LENNARD_JONES] p_0/k_B:  33.64583 [K], p_1: 3.28821 [A], shift/k_B:  -0.05694782 [K], tailcorrection: yes
    CH4 -     H33 [LENNARD_JONES] p_0/k_B:  33.64583 [K], p_1: 3.28821 [A], shift/k_B:  -0.05694782 [K], tailcorrection: yes
    CH4 -     H34 [LENNARD_JONES] p_0/k_B:  33.64583 [K], p_1: 3.28821 [A], shift/k_B:  -0.05694782 [K], tailcorrection: yes
    CH4 -     H35 [LENNARD_JONES] p_0/k_B:  33.64583 [K], p_1: 3.28821 [A], shift/k_B:  -0.05694782 [K], tailcorrection: yes
    CH4 -     N36 [LENNARD_JONES] p_0/k_B:  75.92418 [K], p_1: 3.49628 [A], shift/k_B:  -0.18566247 [K], tailcorrection: yes
    CH4 -     N37 [LENNARD_JONES] p_0/k_B:  75.92418 [K], p_1: 3.49628 [A], shift/k_B:  -0.18566247 [K], tailcorrection: yes
    CH4 -     N38 [LENNARD_JONES] p_0/k_B:  75.92418 [K], p_1: 3.49628 [A], shift/k_B:  -0.18566247 [K], tailcorrection: yes
    CH4 -     N39 [LENNARD_JONES] p_0/k_B:  75.92418 [K], p_1: 3.49628 [A], shift/k_B:  -0.18566247 [K], tailcorrection: yes
    CH4 -     N40 [LENNARD_JONES] p_0/k_B:  75.92418 [K], p_1: 3.49628 [A], shift/k_B:  -0.18566247 [K], tailcorrection: yes
    CH4 -     O41 [LENNARD_JONES] p_0/k_B:  84.42392 [K], p_1: 3.38157 [A], shift/k_B:  -0.16901866 [K], tailcorrection: yes
    CH4 -     O42 [LENNARD_JONES] p_0/k_B:  84.42392 [K], p_1: 3.38157 [A], shift/k_B:  -0.16901866 [K], tailcorrection: yes
    CH4 -     O43 [LENNARD_JONES] p_0/k_B:  84.42392 [K], p_1: 3.38157 [A], shift/k_B:  -0.16901866 [K], tailcorrection: yes
    CH4 -     O44 [LENNARD_JONES] p_0/k_B:  84.42392 [K], p_1: 3.38157 [A], shift/k_B:  -0.16901866 [K], tailcorrection: yes
    CH4 -     O45 [LENNARD_JONES] p_0/k_B:  84.42392 [K], p_1: 3.38157 [A], shift/k_B:  -0.16901866 [K], tailcorrection: yes
    CH4 -     O46 [LENNARD_JONES] p_0/k_B:  84.42392 [K], p_1: 3.38157 [A], shift/k_B:  -0.16901866 [K], tailcorrection: yes
    CH4 -     O47 [LENNARD_JONES] p_0/k_B:  84.42392 [K], p_1: 3.38157 [A], shift/k_B:  -0.16901866 [K], tailcorrection: yes
    CH4 -     O48 [LENNARD_JONES] p_0/k_B:  84.42392 [K], p_1: 3.38157 [A], shift/k_B:  -0.16901866 [K], tailcorrection: yes
    CH4 -     O49 [LENNARD_JONES] p_0/k_B:  84.42392 [K], p_1: 3.38157 [A], shift/k_B:  -0.16901866 [K], tailcorrection: yes
    CH4 -     O50 [LENNARD_JONES] p_0/k_B:  84.42392 [K], p_1: 3.38157 [A], shift/k_B:  -0.16901866 [K], tailcorrection: yes
    CH4 -     O51 [LENNARD_JONES] p_0/k_B:  84.42392 [K], p_1: 3.38157 [A], shift/k_B:  -0.16901866 [K], tailcorrection: yes
    CH4 -     O52 [LENNARD_JONES] p_0/k_B:  84.42392 [K], p_1: 3.38157 [A], shift/k_B:  -0.16901866 [K], tailcorrection: yes
    CH4 -    Zn53 [LENNARD_JONES] p_0/k_B:  96.09933 [K], p_1: 3.09577 [A], shift/k_B:  -0.11328728 [K], tailcorrection: yes
    CH4 -    Zn54 [LENNARD_JONES] p_0/k_B:  96.09933 [K], p_1: 3.09577 [A], shift/k_B:  -0.11328728 [K], tailcorrection: yes
  C_co2 -   C_co2 [LENNARD_JONES] p_0/k_B:  27.00000 [K], p_1: 2.80000 [A], shift/k_B:  -0.01742667 [K], tailcorrection: yes
  C_co2 -   O_co2 [LENNARD_JONES] p_0/k_B:  46.18441 [K], p_1: 2.92500 [A], shift/k_B:  -0.03873754 [K], tailcorrection: yes
  C_co2 -    N_n2 [LENNARD_JONES] p_0/k_B:  31.17691 [K], p_1: 3.05500 [A], shift/k_B:  -0.03394335 [K], tailcorrection: yes
  C_co2 -   N_com [ZERO_POTENTIAL]
  C_co2 -   N_nh3 [LENNARD_JONES] p_0/k_B:  70.67531 [K], p_1: 3.11000 [A], shift/k_B:  -0.08563888 [K], tailcorrection: yes
  C_co2 -   H_nh3 [LENNARD_JONES] p_0/k_B:   0.00000 [K], p_1: 1.40000 [A], shift/k_B:  -0.00000000 [K], tailcorrection: yes
  C_co2 -      C0 [LENNARD_JONES] p_0/k_B:  35.94603 [K], p_1: 3.13650 [A], shift/k_B:  -0.04583029 [K], tailcorrection: yes
  C_co2 -      C1 [LENNARD_JONES] p_0/k_B:  35.94603 [K], p_1: 3.13650 [A], shift/k_B:  -0.04583029 [K], tailcorrection: yes
  C_co2 -      C2 [LENNARD_JONES] p_0/k_B:  35.94603 [K], p_1: 3.13650 [A], shift/k_B:  -0.04583029 [K], tailcorrection: yes
  C_co2 -      C3 [LENNARD_JONES] p_0/k_B:  35.94603 [K], p_1: 3.13650 [A], shift/k_B:  -0.04583029 [K], tailcorrection: yes
  C_co2 -      C4 [LENNARD_JONES] p_0/k_B:  35.94603 [K], p_1: 3.13650 [A], shift/k_B:  -0.04583029 [K], tailcorrection: yes
  C_co2 -      C5 [LENNARD_JONES] p_0/k_B:  35.94603 [K], p_1: 3.13650 [A], shift/k_B:  -0.04583029 [K], tailcorrection: yes
  C_co2 -      C6 [LENNARD_JONES] p_0/k_B:  35.94603 [K], p_1: 3.13650 [A], shift/k_B:  -0.04583029 [K], tailcorrection: yes
  C_co2 -      C7 [LENNARD_JONES] p_0/k_B:  35.94603 [K], p_1: 3.13650 [A], shift/k_B:  -0.04583029 [K], tailcorrection: yes
  C_co2 -      C8 [LENNARD_JONES] p_0/k_B:  35.94603 [K], p_1: 3.13650 [A], shift/k_B:  -0.04583029 [K], tailcorrection: yes
  C_co2 -      C9 [LENNARD_JONES] p_0/k_B:  35.94603 [K], p_1: 3.13650 [A], shift/k_B:  -0.04583029 [K], tailcorrection: yes
  C_co2 -     C10 [LENNARD_JONES] p_0/k_B:  35.94603 [K], p_1: 3.13650 [A], shift/k_B:  -0.04583029 [K], tailcorrection: yes
  C_co2 -     C11 [LENNARD_JONES] p_0/k_B:  35.94603 [K], p_1: 3.13650 [A], shift/k_B:  -0.04583029 [K], tailcorrection: yes
  C_co2 -     C12 [LENNARD_JONES] p_0/k_B:  35.94603 [K], p_1: 3.13650 [A], shift/k_B:  -0.04583029 [K], tailcorrection: yes
  C_co2 -     C13 [LENNARD_JONES] p_0/k_B:  35.94603 [K], p_1: 3.13650 [A], shift/k_B:  -0.04583029 [K], tailcorrection: yes
  C_co2 -     C14 [LENNARD_JONES] p_0/k_B:  35.94603 [K], p_1: 3.13650 [A], shift/k_B:  -0.04583029 [K], tailcorrection: yes
  C_co2 -     C15 [LENNARD_JONES] p_0/k_B:  35.94603 [K], p_1: 3.13650 [A], shift/k_B:  -0.04583029 [K], tailcorrection: yes
  C_co2 -     C16 [LENNARD_JONES] p_0/k_B:  35.94603 [K], p_1: 3.13650 [A], shift/k_B:  -0.04583029 [K], tailcorrection: yes
  C_co2 -     C17 [LENNARD_JONES] p_0/k_B:  35.94603 [K], p_1: 3.13650 [A], shift/k_B:  -0.04583029 [K], tailcorrection: yes
  C_co2 -     C18 [LENNARD_JONES] p_0/k_B:  35.94603 [K], p_1: 3.13650 [A], shift/k_B:  -0.04583029 [K], tailcorrection: yes
  C_co2 -     C19 [LENNARD_JONES] p_0/k_B:  35.94603 [K], p_1: 3.13650 [A], shift/k_B:  -0.04583029 [K], tailcorrection: yes
  C_co2 -     C20 [LENNARD_JONES] p_0/k_B:  35.94603 [K], p_1: 3.13650 [A], shift/k_B:  -0.04583029 [K], tailcorrection: yes
  C_co2 -     C21 [LENNARD_JONES] p_0/k_B:  35.94603 [K], p_1: 3.13650 [A], shift/k_B:  -0.04583029 [K], tailcorrection: yes
  C_co2 -     C22 [LENNARD_JONES] p_0/k_B:  35.94603 [K], p_1: 3.13650 [A], shift/k_B:  -0.04583029 [K], tailcorrection: yes
  C_co2 -     C23 [LENNARD_JONES] p_0/k_B:  35.94603 [K], p_1: 3.13650 [A], shift/k_B:  -0.04583029 [K], tailcorrection: yes
  C_co2 -     C24 [LENNARD_JONES] p_0/k_B:  35.94603 [K], p_1: 3.13650 [A], shift/k_B:  -0.04583029 [K], tailcorrection: yes
  C_co2 -     H25 [LENNARD_JONES] p_0/k_B:  14.37084 [K], p_1: 2.82321 [A], shift/k_B:  -0.00974631 [K], tailcorrection: yes
  C_co2 -     H26 [LENNARD_JONES] p_0/k_B:  14.37084 [K], p_1: 2.82321 [A], shift/k_B:  -0.00974631 [K], tailcorrection: yes
  C_co2 -     H27 [LENNARD_JONES] p_0/k_B:  14.37084 [K], p_1: 2.82321 [A], shift/k_B:  -0.00974631 [K], tailcorrection: yes
  C_co2 -     H28 [LENNARD_JONES] p_0/k_B:  14.37084 [K], p_1: 2.82321 [A], shift/k_B:  -0.00974631 [K], tailcorrection: yes
  C_co2 -     H29 [LENNARD_JONES] p_0/k_B:  14.37084 [K], p_1: 2.82321 [A], shift/k_B:  -0.00974631 [K], tailcorrection: yes
  C_co2 -     H30 [LENNARD_JONES] p_0/k_B:  14.37084 [K], p_1: 2.82321 [A], shift/k_B:  -0.00974631 [K], tailcorrection: yes
  C_co2 -     H31 [LENNARD_JONES] p_0/k_B:  14.37084 [K], p_1: 2.82321 [A], shift/k_B:  -0.00974631 [K], tailcorrection: yes
  C_co2 -     H32 [LENNARD_JONES] p_0/k_B:  14.37084 [K], p_1: 2.82321 [A], shift/k_B:  -0.00974631 [K], tailcorrection: yes
  C_co2 -     H33 [LENNARD_JONES] p_0/k_B:  14.37084 [K], p_1: 2.82321 [A], shift/k_B:  -0.00974631 [K], tailcorrection: yes
  C_co2 -     H34 [LENNARD_JONES] p_0/k_B:  14.37084 [K], p_1: 2.82321 [A], shift/k_B:  -0.00974631 [K], tailcorrection: yes
  C_co2 -     H35 [LENNARD_JONES] p_0/k_B:  14.37084 [K], p_1: 2.82321 [A], shift/k_B:  -0.00974631 [K], tailcorrection: yes
  C_co2 -     N36 [LENNARD_JONES] p_0/k_B:  32.42882 [K], p_1: 3.03128 [A], shift/k_B:  -0.03369358 [K], tailcorrection: yes
  C_co2 -     N37 [LENNARD_JONES] p_0/k_B:  32.42882 [K], p_1: 3.03128 [A], shift/k_B:  -0.03369358 [K], tailcorrection: yes
  C_co2 -     N38 [LENNARD_JONES] p_0/k_B:  32.42882 [K], p_1: 3.03128 [A], shift/k_B:  -0.03369358 [K], tailcorrection: yes
  C_co2 -     N39 [LENNARD_JONES] p_0/k_B:  32.42882 [K], p_1: 3.03128 [A], shift/k_B:  -0.03369358 [K], tailcorrection: yes
  C_co2 -     N40 [LENNARD_JONES] p_0/k_B:  32.42882 [K], p_1: 3.03128 [A], shift/k_B:  -0.03369358 [K], tailcorrection: yes
  C_co2 -     O41 [LENNARD_JONES] p_0/k_B:  36.05924 [K], p_1: 2.91657 [A], shift/k_B:  -0.02972613 [K], tailcorrection: yes
  C_co2 -     O42 [LENNARD_JONES] p_0/k_B:  36.05924 [K], p_1: 2.91657 [A], shift/k_B:  -0.02972613 [K], tailcorrection: yes
  C_co2 -     O43 [LENNARD_JONES] p_0/k_B:  36.05924 [K], p_1: 2.91657 [A], shift/k_B:  -0.02972613 [K], tailcorrection: yes
  C_co2 -     O44 [LENNARD_JONES] p_0/k_B:  36.05924 [K], p_1: 2.91657 [A], shift/k_B:  -0.02972613 [K], tailcorrection: yes
  C_co2 -     O45 [LENNARD_JONES] p_0/k_B:  36.05924 [K], p_1: 2.91657 [A], shift/k_B:  -0.02972613 [K], tailcorrection: yes
  C_co2 -     O46 [LENNARD_JONES] p_0/k_B:  36.05924 [K], p_1: 2.91657 [A], shift/k_B:  -0.02972613 [K], tailcorrection: yes
  C_co2 -     O47 [LENNARD_JONES] p_0/k_B:  36.05924 [K], p_1: 2.91657 [A], shift/k_B:  -0.02972613 [K], tailcorrection: yes
  C_co2 -     O48 [LENNARD_JONES] p_0/k_B:  36.05924 [K], p_1: 2.91657 [A], shift/k_B:  -0.02972613 [K], tailcorrection: yes
  C_co2 -     O49 [LENNARD_JONES] p_0/k_B:  36.05924 [K], p_1: 2.91657 [A], shift/k_B:  -0.02972613 [K], tailcorrection: yes
  C_co2 -     O50 [LENNARD_JONES] p_0/k_B:  36.05924 [K], p_1: 2.91657 [A], shift/k_B:  -0.02972613 [K], tailcorrection: yes
  C_co2 -     O51 [LENNARD_JONES] p_0/k_B:  36.05924 [K], p_1: 2.91657 [A], shift/k_B:  -0.02972613 [K], tailcorrection: yes
  C_co2 -     O52 [LENNARD_JONES] p_0/k_B:  36.05924 [K], p_1: 2.91657 [A], shift/k_B:  -0.02972613 [K], tailcorrection: yes
  C_co2 -    Zn53 [LENNARD_JONES] p_0/k_B:  41.04605 [K], p_1: 2.63077 [A], shift/k_B:  -0.01822628 [K], tailcorrection: yes
  C_co2 -    Zn54 [LENNARD_JONES] p_0/k_B:  41.04605 [K], p_1: 2.63077 [A], shift/k_B:  -0.01822628 [K], tailcorrection: yes
  O_co2 -   O_co2 [LENNARD_JONES] p_0/k_B:  79.00000 [K], p_1: 3.05000 [A], shift/k_B:  -0.08516900 [K], tailcorrection: yes
  O_co2 -    N_n2 [LENNARD_JONES] p_0/k_B:  53.32917 [K], p_1: 3.18000 [A], shift/k_B:  -0.07384985 [K], tailcorrection: yes
  O_co2 -   N_com [ZERO_POTENTIAL]
  O_co2 -   N_nh3 [LENNARD_JONES] p_0/k_B: 120.89251 [K], p_1: 3.23500 [A], shift/k_B:  -0.18554570 [K], tailcorrection: yes
  O_co2 -   H_nh3 [LENNARD_JONES] p_0/k_B:   0.00000 [K], p_1: 1.52500 [A], shift/k_B:  -0.00000000 [K], tailcorrection: yes
  O_co2 -      C0 [LENNARD_JONES] p_0/k_B:  61.48691 [K], p_1: 3.26150 [A], shift/k_B:  -0.09910153 [K], tailcorrection: yes
  O_co2 -      C1 [LENNARD_JONES] p_0/k_B:  61.48691 [K], p_1: 3.26150 [A], shift/k_B:  -0.09910153 [K], tailcorrection: yes
  O_co2 -      C2 [LENNARD_JONES] p_0/k_B:  61.48691 [K], p_1: 3.26150 [A], shift/k_B:  -0.09910153 [K], tailcorrection: yes
  O_co2 -      C3 [LENNARD_JONES] p_0/k_B:  61.48691 [K], p_1: 3.26150 [A], shift/k_B:  -0.09910153 [K], tailcorrection: yes
  O_co2 -      C4 [LENNARD_JONES] p_0/k_B:  61.48691 [K], p_1: 3.26150 [A], shift/k_B:  -0.09910153 [K], tailcorrection: yes
  O_co2 -      C5 [LENNARD_JONES] p_0/k_B:  61.48691 [K], p_1: 3.26150 [A], shift/k_B:  -0.09910153 [K], tailcorrection: yes
  O_co2 -      C6 [LENNARD_JONES] p_0/k_B:  61.48691 [K], p_1: 3.26150 [A], shift/k_B:  -0.09910153 [K], tailcorrection: yes
  O_co2 -      C7 [LENNARD_JONES] p_0/k_B:  61.48691 [K], p_1: 3.26150 [A], shift/k_B:  -0.09910153 [K], tailcorrection: yes
  O_co2 -      C8 [LENNARD_JONES] p_0/k_B:  61.48691 [K], p_1: 3.26150 [A], shift/k_B:  -0.09910153 [K], tailcorrection: yes
  O_co2 -      C9 [LENNARD_JONES] p_0/k_B:  61.48691 [K], p_1: 3.26150 [A], shift/k_B:  -0.09910153 [K], tailcorrection: yes
  O_co2 -     C10 [LENNARD_JONES] p_0/k_B:  61.48691 [K], p_1: 3.26150 [A], shift/k_B:  -0.09910153 [K], tailcorrection: yes
  O_co2 -     C11 [LENNARD_JONES] p_0/k_B:  61.48691 [K], p_1: 3.26150 [A], shift/k_B:  -0.09910153 [K], tailcorrection: yes
  O_co2 -     C12 [LENNARD_JONES] p_0/k_B:  61.48691 [K], p_1: 3.26150 [A], shift/k_B:  -0.09910153 [K], tailcorrection: yes
  O_co2 -     C13 [LENNARD_JONES] p_0/k_B:  61.48691 [K], p_1: 3.26150 [A], shift/k_B:  -0.09910153 [K], tailcorrection: yes
  O_co2 -     C14 [LENNARD_JONES] p_0/k_B:  61.48691 [K], p_1: 3.26150 [A], shift/k_B:  -0.09910153 [K], tailcorrection: yes
  O_co2 -     C15 [LENNARD_JONES] p_0/k_B:  61.48691 [K], p_1: 3.26150 [A], shift/k_B:  -0.09910153 [K], tailcorrection: yes
  O_co2 -     C16 [LENNARD_JONES] p_0/k_B:  61.48691 [K], p_1: 3.26150 [A], shift/k_B:  -0.09910153 [K], tailcorrection: yes
  O_co2 -     C17 [LENNARD_JONES] p_0/k_B:  61.48691 [K], p_1: 3.26150 [A], shift/k_B:  -0.09910153 [K], tailcorrection: yes
  O_co2 -     C18 [LENNARD_JONES] p_0/k_B:  61.48691 [K], p_1: 3.26150 [A], shift/k_B:  -0.09910153 [K], tailcorrection: yes
  O_co2 -     C19 [LENNARD_JONES] p_0/k_B:  61.48691 [K], p_1: 3.26150 [A], shift/k_B:  -0.09910153 [K], tailcorrection: yes
  O_co2 -     C20 [LENNARD_JONES] p_0/k_B:  61.48691 [K], p_1: 3.26150 [A], shift/k_B:  -0.09910153 [K], tailcorrection: yes
  O_co2 -     C21 [LENNARD_JONES] p_0/k_B:  61.48691 [K], p_1: 3.26150 [A], shift/k_B:  -0.09910153 [K], tailcorrection: yes
  O_co2 -     C22 [LENNARD_JONES] p_0/k_B:  61.48691 [K], p_1: 3.26150 [A], shift/k_B:  -0.09910153 [K], tailcorrection: yes
  O_co2 -     C23 [LENNARD_JONES] p_0/k_B:  61.48691 [K], p_1: 3.26150 [A], shift/k_B:  -0.09910153 [K], tailcorrection: yes
  O_co2 -     C24 [LENNARD_JONES] p_0/k_B:  61.48691 [K], p_1: 3.26150 [A], shift/k_B:  -0.09910153 [K], tailcorrection: yes
  O_co2 -     H25 [LENNARD_JONES] p_0/k_B:  24.58181 [K], p_1: 2.94821 [A], shift/k_B:  -0.02161929 [K], tailcorrection: yes
  O_co2 -     H26 [LENNARD_JONES] p_0/k_B:  24.58181 [K], p_1: 2.94821 [A], shift/k_B:  -0.02161929 [K], tailcorrection: yes
  O_co2 -     H27 [LENNARD_JONES] p_0/k_B:  24.58181 [K], p_1: 2.94821 [A], shift/k_B:  -0.02161929 [K], tailcorrection: yes
  O_co2 -     H28 [LENNARD_JONES] p_0/k_B:  24.58181 [K], p_1: 2.94821 [A], shift/k_B:  -0.02161929 [K], tailcorrection: yes
  O_co2 -     H29 [LENNARD_JONES] p_0/k_B:  24.58181 [K], p_1: 2.94821 [A], shift/k_B:  -0.02161929 [K], tailcorrection: yes
  O_co2 -     H30 [LENNARD_JONES] p_0/k_B:  24.58181 [K], p_1: 2.94821 [A], shift/k_B:  -0.02161929 [K], tailcorrection: yes
  O_co2 -     H31 [LENNARD_JONES] p_0/k_B:  24.58181 [K], p_1: 2.94821 [A], shift/k_B:  -0.02161929 [K], tailcorrection: yes
  O_co2 -     H32 [LENNARD_JONES] p_0/k_B:  24.58181 [K], p_1: 2.94821 [A], shift/k_B:  -0.02161929 [K], tailcorrection: yes
  O_co2 -     H33 [LENNARD_JONES] p_0/k_B:  24.58181 [K], p_1: 2.94821 [A], shift/k_B:  -0.02161929 [K], tailcorrection: yes
  O_co2 -     H34 [LENNARD_JONES] p_0/k_B:  24.58181 [K], p_1: 2.94821 [A], shift/k_B:  -0.02161929 [K], tailcorrection: yes
  O_co2 -     H35 [LENNARD_JONES] p_0/k_B:  24.58181 [K], p_1: 2.94821 [A], shift/k_B:  -0.02161929 [K], tailcorrection: yes
  O_co2 -     N36 [LENNARD_JONES] p_0/k_B:  55.47059 [K], p_1: 3.15628 [A], shift/k_B:  -0.07344203 [K], tailcorrection: yes
  O_co2 -     N37 [LENNARD_JONES] p_0/k_B:  55.47059 [K], p_1: 3.15628 [A], shift/k_B:  -0.07344203 [K], tailcorrection: yes
  O_co2 -     N38 [LENNARD_JONES] p_0/k_B:  55.47059 [K], p_1: 3.15628 [A], shift/k_B:  -0.07344203 [K], tailcorrection: yes
  O_co2 -     N39 [LENNARD_JONES] p_0/k_B:  55.47059 [K], p_1: 3.15628 [A], shift/k_B:  -0.07344203 [K], tailcorrection: yes
  O_co2 -     N40 [LENNARD_JONES] p_0/k_B:  55.47059 [K], p_1: 3.15628 [A], shift/k_B:  -0.07344203 [K], tailcorrection: yes
  O_co2 -     O41 [LENNARD_JONES] p_0/k_B:  61.68055 [K], p_1: 3.04157 [A], shift/k_B:  -0.06540286 [K], tailcorrection: yes
  O_co2 -     O42 [LENNARD_JONES] p_0/k_B:  61.68055 [K], p_1: 3.04157 [A], shift/k_B:  -0.06540286 [K], tailcorrection: yes
  O_co2 -     O43 [LENNARD_JONES] p_0/k_B:  61.68055 [K], p_1: 3.04157 [A], shift/k_B:  -0.06540286 [K], tailcorrection: yes
  O_co2 -     O44 [LENNARD_JONES] p_0/k_B:  61.68055 [K], p_1: 3.04157 [A], shift/k_B:  -0.06540286 [K], tailcorrection: yes
  O_co2 -     O45 [LENNARD_JONES] p_0/k_B:  61.68055 [K], p_1: 3.04157 [A], shift/k_B:  -0.06540286 [K], tailcorrection: yes
  O_co2 -     O46 [LENNARD_JONES] p_0/k_B:  61.68055 [K], p_1: 3.04157 [A], shift/k_B:  -0.06540286 [K], tailcorrection: yes
  O_co2 -     O47 [LENNARD_JONES] p_0/k_B:  61.68055 [K], p_1: 3.04157 [A], shift/k_B:  -0.06540286 [K], tailcorrection: yes
  O_co2 -     O48 [LENNARD_JONES] p_0/k_B:  61.68055 [K], p_1: 3.04157 [A], shift/k_B:  -0.06540286 [K], tailcorrection: yes
  O_co2 -     O49 [LENNARD_JONES] p_0/k_B:  61.68055 [K], p_1: 3.04157 [A], shift/k_B:  -0.06540286 [K], tailcorrection: yes
  O_co2 -     O50 [LENNARD_JONES] p_0/k_B:  61.68055 [K], p_1: 3.04157 [A], shift/k_B:  -0.06540286 [K], tailcorrection: yes
  O_co2 -     O51 [LENNARD_JONES] p_0/k_B:  61.68055 [K], p_1: 3.04157 [A], shift/k_B:  -0.06540286 [K], tailcorrection: yes
  O_co2 -     O52 [LENNARD_JONES] p_0/k_B:  61.68055 [K], p_1: 3.04157 [A], shift/k_B:  -0.06540286 [K], tailcorrection: yes
  O_co2 -    Zn53 [LENNARD_JONES] p_0/k_B:  70.21066 [K], p_1: 2.75577 [A], shift/k_B:  -0.04118835 [K], tailcorrection: yes
  O_co2 -    Zn54 [LENNARD_JONES] p_0/k_B:  70.21066 [K], p_1: 2.75577 [A], shift/k_B:  -0.04118835 [K], tailcorrection: yes
   N_n2 -    N_n2 [LENNARD_JONES] p_0/k_B:  36.00000 [K], p_1: 3.31000 [A], shift/k_B:  -0.06339451 [K], tailcorrection: yes
   N_n2 -   N_com [ZERO_POTENTIAL]
   N_n2 -   N_nh3 [LENNARD_JONES] p_0/k_B:  81.60882 [K], p_1: 3.36500 [A], shift/k_B:  -0.15863859 [K], tailcorrection: yes
   N_n2 -   H_nh3 [LENNARD_JONES] p_0/k_B:   0.00000 [K], p_1: 1.65500 [A], shift/k_B:  -0.00000000 [K], tailcorrection: yes
   N_n2 -      C0 [LENNARD_JONES] p_0/k_B:  41.50691 [K], p_1: 3.39149 [A], shift/k_B:  -0.08457044 [K], tailcorrection: yes
   N_n2 -      C1 [LENNARD_JONES] p_0/k_B:  41.50691 [K], p_1: 3.39149 [A], shift/k_B:  -0.08457044 [K], tailcorrection: yes
   N_n2 -      C2 [LENNARD_JONES] p_0/k_B:  41.50691 [K], p_1: 3.39149 [A], shift/k_B:  -0.08457044 [K], tailcorrection: yes
   N_n2 -      C3 [LENNARD_JONES] p_0/k_B:  41.50691 [K], p_1: 3.39149 [A], shift/k_B:  -0.08457044 [K], tailcorrection: yes
   N_n2 -      C4 [LENNARD_JONES] p_0/k_B:  41.50691 [K], p_1: 3.39149 [A], shift/k_B:  -0.08457044 [K], tailcorrection: yes
   N_n2 -      C5 [LENNARD_JONES] p_0/k_B:  41.50691 [K], p_1: 3.39149 [A], shift/k_B:  -0.08457044 [K], tailcorrection: yes
   N_n2 -      C6 [LENNARD_JONES] p_0/k_B:  41.50691 [K], p_1: 3.39149 [A], shift/k_B:  -0.08457044 [K], tailcorrection: yes
   N_n2 -      C7 [LENNARD_JONES] p_0/k_B:  41.50691 [K], p_1: 3.39149 [A], shift/k_B:  -0.08457044 [K], tailcorrection: yes
   N_n2 -      C8 [LENNARD_JONES] p_0/k_B:  41.50691 [K], p_1: 3.39149 [A], shift/k_B:  -0.08457044 [K], tailcorrection: yes
   N_n2 -      C9 [LENNARD_JONES] p_0/k_B:  41.50691 [K], p_1: 3.39149 [A], shift/k_B:  -0.08457044 [K], tailcorrection: yes
   N_n2 -     C10 [LENNARD_JONES] p_0/k_B:  41.50691 [K], p_1: 3.39149 [A], shift/k_B:  -0.08457044 [K], tailcorrection: yes
   N_n2 -     C11 [LENNARD_JONES] p_0/k_B:  41.50691 [K], p_1: 3.39149 [A], shift/k_B:  -0.08457044 [K], tailcorrection: yes
   N_n2 -     C12 [LENNARD_JONES] p_0/k_B:  41.50691 [K], p_1: 3.39149 [A], shift/k_B:  -0.08457044 [K], tailcorrection: yes
   N_n2 -     C13 [LENNARD_JONES] p_0/k_B:  41.50691 [K], p_1: 3.39149 [A], shift/k_B:  -0.08457044 [K], tailcorrection: yes
   N_n2 -     C14 [LENNARD_JONES] p_0/k_B:  41.50691 [K], p_1: 3.39149 [A], shift/k_B:  -0.08457044 [K], tailcorrection: yes
   N_n2 -     C15 [LENNARD_JONES] p_0/k_B:  41.50691 [K], p_1: 3.39149 [A], shift/k_B:  -0.08457044 [K], tailcorrection: yes
   N_n2 -     C16 [LENNARD_JONES] p_0/k_B:  41.50691 [K], p_1: 3.39149 [A], shift/k_B:  -0.08457044 [K], tailcorrection: yes
   N_n2 -     C17 [LENNARD_JONES] p_0/k_B:  41.50691 [K], p_1: 3.39149 [A], shift/k_B:  -0.08457044 [K], tailcorrection: yes
   N_n2 -     C18 [LENNARD_JONES] p_0/k_B:  41.50691 [K], p_1: 3.39149 [A], shift/k_B:  -0.08457044 [K], tailcorrection: yes
   N_n2 -     C19 [LENNARD_JONES] p_0/k_B:  41.50691 [K], p_1: 3.39149 [A], shift/k_B:  -0.08457044 [K], tailcorrection: yes
   N_n2 -     C20 [LENNARD_JONES] p_0/k_B:  41.50691 [K], p_1: 3.39149 [A], shift/k_B:  -0.08457044 [K], tailcorrection: yes
   N_n2 -     C21 [LENNARD_JONES] p_0/k_B:  41.50691 [K], p_1: 3.39149 [A], shift/k_B:  -0.08457044 [K], tailcorrection: yes
   N_n2 -     C22 [LENNARD_JONES] p_0/k_B:  41.50691 [K], p_1: 3.39149 [A], shift/k_B:  -0.08457044 [K], tailcorrection: yes
   N_n2 -     C23 [LENNARD_JONES] p_0/k_B:  41.50691 [K], p_1: 3.39149 [A], shift/k_B:  -0.08457044 [K], tailcorrection: yes
   N_n2 -     C24 [LENNARD_JONES] p_0/k_B:  41.50691 [K], p_1: 3.39149 [A], shift/k_B:  -0.08457044 [K], tailcorrection: yes
   N_n2 -     H25 [LENNARD_JONES] p_0/k_B:  16.59402 [K], p_1: 3.07821 [A], shift/k_B:  -0.01890557 [K], tailcorrection: yes
   N_n2 -     H26 [LENNARD_JONES] p_0/k_B:  16.59402 [K], p_1: 3.07821 [A], shift/k_B:  -0.01890557 [K], tailcorrection: yes
   N_n2 -     H27 [LENNARD_JONES] p_0/k_B:  16.59402 [K], p_1: 3.07821 [A], shift/k_B:  -0.01890557 [K], tailcorrection: yes
   N_n2 -     H28 [LENNARD_JONES] p_0/k_B:  16.59402 [K], p_1: 3.07821 [A], shift/k_B:  -0.01890557 [K], tailcorrection: yes
   N_n2 -     H29 [LENNARD_JONES] p_0/k_B:  16.59402 [K], p_1: 3.07821 [A], shift/k_B:  -0.01890557 [K], tailcorrection: yes
   N_n2 -     H30 [LENNARD_JONES] p_0/k_B:  16.59402 [K], p_1: 3.07821 [A], shift/k_B:  -0.01890557 [K], tailcorrection: yes
   N_n2 -     H31 [LENNARD_JONES] p_0/k_B:  16.59402 [K], p_1: 3.07821 [A], shift/k_B:  -0.01890557 [K], tailcorrection: yes
   N_n2 -     H32 [LENNARD_JONES] p_0/k_B:  16.59402 [K], p_1: 3.07821 [A], shift/k_B:  -0.01890557 [K], tailcorrection: yes
   N_n2 -     H33 [LENNARD_JONES] p_0/k_B:  16.59402 [K], p_1: 3.07821 [A], shift/k_B:  -0.01890557 [K], tailcorrection: yes
   N_n2 -     H34 [LENNARD_JONES] p_0/k_B:  16.59402 [K], p_1: 3.07821 [A], shift/k_B:  -0.01890557 [K], tailcorrection: yes
[...]
	Block[ 3]            0.00000 [K]
	Block[ 4]            0.00000 [K]
	------------------------------------------------------------------------------
	Average              0.00000 [K] +/-            0.00000 [K]

Average Cation Torsion energy:
==============================
	Block[ 0]            0.00000 [K]
	Block[ 1]            0.00000 [K]
	Block[ 2]            0.00000 [K]
	Block[ 3]            0.00000 [K]
	Block[ 4]            0.00000 [K]
	------------------------------------------------------------------------------
	Average              0.00000 [K] +/-            0.00000 [K]

Average Cation Improper Torsion energy:
=======================================
	Block[ 0]            0.00000 [K]
	Block[ 1]            0.00000 [K]
	Block[ 2]            0.00000 [K]
	Block[ 3]            0.00000 [K]
	Block[ 4]            0.00000 [K]
	------------------------------------------------------------------------------
	Average              0.00000 [K] +/-            0.00000 [K]

Average Cation Bond-Bond cross term energy:
=================================================
	Block[ 0]            0.00000 [K]
	Block[ 1]            0.00000 [K]
	Block[ 2]            0.00000 [K]
	Block[ 3]            0.00000 [K]
	Block[ 4]            0.00000 [K]
	------------------------------------------------------------------------------
	Average              0.00000 [K] +/-            0.00000 [K]

Average Cation Bend-Bend cross term energy:
===========================================
	Block[ 0]            0.00000 [K]
	Block[ 1]            0.00000 [K]
	Block[ 2]            0.00000 [K]
	Block[ 3]            0.00000 [K]
	Block[ 4]            0.00000 [K]
	------------------------------------------------------------------------------
	Average              0.00000 [K] +/-            0.00000 [K]

Average Cation Bond-Bend cross term energy:
==============================================
	Block[ 0]            0.00000 [K]
	Block[ 1]            0.00000 [K]
	Block[ 2]            0.00000 [K]
	Block[ 3]            0.00000 [K]
	Block[ 4]            0.00000 [K]
	------------------------------------------------------------------------------
	Average              0.00000 [K] +/-            0.00000 [K]

Average Cation Bond-Torsion cross term energy:
==============================================
	Block[ 0]            0.00000 [K]
	Block[ 1]            0.00000 [K]
	Block[ 2]            0.00000 [K]
	Block[ 3]            0.00000 [K]
	Block[ 4]            0.00000 [K]
	------------------------------------------------------------------------------
	Average              0.00000 [K] +/-            0.00000 [K]

Average Cation Bend-Torsion cross term energy:
==============================================
	Block[ 0]            0.00000 [K]
	Block[ 1]            0.00000 [K]
	Block[ 2]            0.00000 [K]
	Block[ 3]            0.00000 [K]
	Block[ 4]            0.00000 [K]
	------------------------------------------------------------------------------
	Average              0.00000 [K] +/-            0.00000 [K]

Average Cation Intra Van der Waals energy:
==========================================
	Block[ 0]            0.00000 [K]
	Block[ 1]            0.00000 [K]
	Block[ 2]            0.00000 [K]
	Block[ 3]            0.00000 [K]
	Block[ 4]            0.00000 [K]
	------------------------------------------------------------------------------
	Average              0.00000 [K] +/-            0.00000 [K]

Average Cation Intra charge-charge Coulomb energy:
====================================
	Block[ 0]            0.00000 [K]
	Block[ 1]            0.00000 [K]
	Block[ 2]            0.00000 [K]
	Block[ 3]            0.00000 [K]
	Block[ 4]            0.00000 [K]
	------------------------------------------------------------------------------
	Average              0.00000 [K] +/-            0.00000 [K]

Average Cation Intra charge-bonddipole Coulomb energy:
====================================
	Block[ 0]            0.00000 [K]
	Block[ 1]            0.00000 [K]
	Block[ 2]            0.00000 [K]
	Block[ 3]            0.00000 [K]
	Block[ 4]            0.00000 [K]
	------------------------------------------------------------------------------
	Average              0.00000 [K] +/-            0.00000 [K]

Average Cation Intra bonddipole-bonddipole Coulomb energy:
====================================
	Block[ 0]            0.00000 [K]
	Block[ 1]            0.00000 [K]
	Block[ 2]            0.00000 [K]
	Block[ 3]            0.00000 [K]
	Block[ 4]            0.00000 [K]
	------------------------------------------------------------------------------
	Average              0.00000 [K] +/-            0.00000 [K]

Average Host-Host energy:
=========================
	Block[ 0] 0.00000            Van der Waals: 0.00000            Coulomb: 0.00000            [K]
	Block[ 1] 0.00000            Van der Waals: 0.00000            Coulomb: 0.00000            [K]
	Block[ 2] 0.00000            Van der Waals: 0.00000            Coulomb: 0.00000            [K]
	Block[ 3] 0.00000            Van der Waals: 0.00000            Coulomb: 0.00000            [K]
	Block[ 4] 0.00000            Van der Waals: 0.00000            Coulomb: 0.00000            [K]
	------------------------------------------------------------------------------
	Average   0.00000            Van der Waals: 0.000000           Coulomb: 0.00000            [K]
	      +/- 0.00000                       +/- 0.000000                +/- 0.00000            [K]

Average Adsorbate-Adsorbate energy:
===================================
	Block[ 0] -8715.22189        Van der Waals: -2371.09322        Coulomb: -6344.12867        [K]
	Block[ 1] -5985.51624        Van der Waals: -1848.40395        Coulomb: -4137.11229        [K]
	Block[ 2] -6559.03027        Van der Waals: -1815.62901        Coulomb: -4743.40126        [K]
	Block[ 3] -6473.26690        Van der Waals: -1825.28970        Coulomb: -4647.97720        [K]
	Block[ 4] -5474.95708        Van der Waals: -1585.66688        Coulomb: -3889.29020        [K]
	------------------------------------------------------------------------------
	Average   -6641.59848        Van der Waals: -1889.216551       Coulomb: -4752.38193        [K]
	      +/- 1536.43050                    +/- 359.550924              +/- 1188.84817         [K]

Average Cation-Cation energy:
=============================
	Block[ 0] 0.00000            Van der Waals: 0.00000            Coulomb: 0.00000            [K]
	Block[ 1] 0.00000            Van der Waals: 0.00000            Coulomb: 0.00000            [K]
	Block[ 2] 0.00000            Van der Waals: 0.00000            Coulomb: 0.00000            [K]
	Block[ 3] 0.00000            Van der Waals: 0.00000            Coulomb: 0.00000            [K]
	Block[ 4] 0.00000            Van der Waals: 0.00000            Coulomb: 0.00000            [K]
	------------------------------------------------------------------------------
	Average   0.00000            Van der Waals: 0.000000           Coulomb: 0.00000            [K]
	      +/- 0.00000                       +/- 0.000000                +/- 0.00000            [K]

Average Host-Adsorbate energy:
==============================
	Block[ 0] -55938.36194       Van der Waals: -42786.66171       Coulomb: -13151.70023       [K]
	Block[ 1] -53305.75767       Van der Waals: -40079.49652       Coulomb: -13226.26116       [K]
	Block[ 2] -52648.09057       Van der Waals: -39583.54598       Coulomb: -13064.54459       [K]
	Block[ 3] -54062.90726       Van der Waals: -39324.76426       Coulomb: -14738.14299       [K]
	Block[ 4] -48044.43276       Van der Waals: -36367.96016       Coulomb: -11676.47260       [K]
	------------------------------------------------------------------------------
	Average   -52799.91004       Van der Waals: -39628.485726      Coulomb: -13171.42431       [K]
	      +/- 3637.43600                    +/- 2837.961399             +/- 1346.33245         [K]

Average Host-Cation energy:
===========================
	Block[ 0] 0.00000            Van der Waals: 0.00000            Coulomb: 0.00000            [K]
	Block[ 1] 0.00000            Van der Waals: 0.00000            Coulomb: 0.00000            [K]
	Block[ 2] 0.00000            Van der Waals: 0.00000            Coulomb: 0.00000            [K]
	Block[ 3] 0.00000            Van der Waals: 0.00000            Coulomb: 0.00000            [K]
	Block[ 4] 0.00000            Van der Waals: 0.00000            Coulomb: 0.00000            [K]
	------------------------------------------------------------------------------
	Average   0.00000            Van der Waals: 0.000000           Coulomb: 0.00000            [K]
	      +/- 0.00000                       +/- 0.000000                +/- 0.00000            [K]

Average Adsorbate-Cation energy:
================================
	Block[ 0] 0.00000            Van der Waals: 0.00000            Coulomb: 0.00000            [K]
	Block[ 1] 0.00000            Van der Waals: 0.00000            Coulomb: 0.00000            [K]
	Block[ 2] 0.00000            Van der Waals: 0.00000            Coulomb: 0.00000            [K]
	Block[ 3] 0.00000            Van der Waals: 0.00000            Coulomb: 0.00000            [K]
	Block[ 4] 0.00000            Van der Waals: 0.00000            Coulomb: 0.00000            [K]
	------------------------------------------------------------------------------
	Average   0.00000            Van der Waals: 0.000000           Coulomb: 0.00000            [K]
	      +/- 0.00000                       +/- 0.000000                +/- 0.00000            [K]

Host polarization energy:
=======================
	Block[ 0]            0.00000 [K]
	Block[ 1]            0.00000 [K]
	Block[ 2]            0.00000 [K]
	Block[ 3]            0.00000 [K]
	Block[ 4]            0.00000 [K]
	------------------------------------------------------------------------------
	Average              0.00000 [K] +/-            0.00000 [K]

Adsorbate polarization energy:
=======================
	Block[ 0]            0.00000 [K]
	Block[ 1]            0.00000 [K]
	Block[ 2]            0.00000 [K]
	Block[ 3]            0.00000 [K]
	Block[ 4]            0.00000 [K]
	------------------------------------------------------------------------------
	Average              0.00000 [K] +/-            0.00000 [K]

Cation polarization energy:
=======================
	Block[ 0]            0.00000 [K]
	Block[ 1]            0.00000 [K]
	Block[ 2]            0.00000 [K]
	Block[ 3]            0.00000 [K]
	Block[ 4]            0.00000 [K]
	------------------------------------------------------------------------------
	Average              0.00000 [K] +/-            0.00000 [K]

Host back-polarization energy:
=======================
	Block[ 0]            0.00000 [K]
	Block[ 1]            0.00000 [K]
	Block[ 2]            0.00000 [K]
	Block[ 3]            0.00000 [K]
	Block[ 4]            0.00000 [K]
	------------------------------------------------------------------------------
	Average              0.00000 [K] +/-            0.00000 [K]

Adsorbate back-polarization energy:
=======================
	Block[ 0]            0.00000 [K]
	Block[ 1]            0.00000 [K]
	Block[ 2]            0.00000 [K]
	Block[ 3]            0.00000 [K]
	Block[ 4]            0.00000 [K]
	------------------------------------------------------------------------------
	Average              0.00000 [K] +/-            0.00000 [K]

Cation back-polarization energy:
=======================
	Block[ 0]            0.00000 [K]
	Block[ 1]            0.00000 [K]
	Block[ 2]            0.00000 [K]
	Block[ 3]            0.00000 [K]
	Block[ 4]            0.00000 [K]
	------------------------------------------------------------------------------
	Average              0.00000 [K] +/-            0.00000 [K]

Tail-correction energy:
=======================
	Block[ 0]       -11175.93555 [K]
	Block[ 1]       -11053.24190 [K]
	Block[ 2]       -11054.95051 [K]
	Block[ 3]       -11050.56476 [K]
	Block[ 4]       -10924.33483 [K]
	------------------------------------------------------------------------------
	Average         -11051.80551 [K] +/-          110.46690 [K]

Distance-constraints energy:
=======================
	Block[ 0]            0.00000 [K]
	Block[ 1]            0.00000 [K]
	Block[ 2]            0.00000 [K]
	Block[ 3]            0.00000 [K]
	Block[ 4]            0.00000 [K]
	------------------------------------------------------------------------------
	Average              0.00000 [K] +/-            0.00000 [K]

Angle-constraints energy:
=======================
	Block[ 0]            0.00000 [K]
	Block[ 1]            0.00000 [K]
	Block[ 2]            0.00000 [K]
	Block[ 3]            0.00000 [K]
	Block[ 4]            0.00000 [K]
	------------------------------------------------------------------------------
	Average              0.00000 [K] +/-            0.00000 [K]

Dihedral-constraints energy:
=======================
	Block[ 0]            0.00000 [K]
	Block[ 1]            0.00000 [K]
	Block[ 2]            0.00000 [K]
	Block[ 3]            0.00000 [K]
	Block[ 4]            0.00000 [K]
	------------------------------------------------------------------------------
	Average              0.00000 [K] +/-            0.00000 [K]

Inversion-bend constraints energy:
=======================
	Block[ 0]            0.00000 [K]
	Block[ 1]            0.00000 [K]
	Block[ 2]            0.00000 [K]
	Block[ 3]            0.00000 [K]
	Block[ 4]            0.00000 [K]
	------------------------------------------------------------------------------
	Average              0.00000 [K] +/-            0.00000 [K]

Out-of-plane-distance constraints energy:
=======================
	Block[ 0]            0.00000 [K]
	Block[ 1]            0.00000 [K]
	Block[ 2]            0.00000 [K]
	Block[ 3]            0.00000 [K]
	Block[ 4]            0.00000 [K]
	------------------------------------------------------------------------------
	Average              0.00000 [K] +/-            0.00000 [K]

Exclusion-constraints energy:
=======================
	Block[ 0]            0.00000 [K]
	Block[ 1]            0.00000 [K]
	Block[ 2]            0.00000 [K]
	Block[ 3]            0.00000 [K]
	Block[ 4]            0.00000 [K]
	------------------------------------------------------------------------------
	Average              0.00000 [K] +/-            0.00000 [K]

Total energy:
=============
	Block[ 0]       -75829.51938 [K]
	Block[ 1]       -70344.51581 [K]
	Block[ 2]       -70262.07134 [K]
	Block[ 3]       -71586.73892 [K]
	Block[ 4]       -64443.72467 [K]
	------------------------------------------------------------------------------
	Average         -70493.31403 [K] +/-         5055.97213 [K]

Number of molecules:
====================

Component 0 [NH3]
-------------------------------------------------------------
	Block[ 0] 27.31450           [-]
	Block[ 1] 25.28500           [-]
	Block[ 2] 25.30300           [-]
	Block[ 3] 25.23350           [-]
	Block[ 4] 23.13550           [-]
	------------------------------------------------------------------------------
	Average loading absolute                             25.2543000000 +/-       1.8348377559 [-]
	Average loading absolute [molecules/unit cell]        1.5783937500 +/-       0.1146773597 [-]
	Average loading absolute [mol/kg framework]                  2.2414011615 +/-       0.1628478112 [-]
	Average loading absolute [milligram/gram framework]         38.1723169655 +/-       2.7733894188 [-]
	Average loading absolute [cm^3 (STP)/gr framework]          50.2387112752 +/-       3.6500668899 [-]
	Average loading absolute [cm^3 (STP)/cm^3 framework]        53.5377464392 +/-       3.8897565379 [-]

	Block[ 0] 26.87847           [-]
	Block[ 1] 24.84897           [-]
	Block[ 2] 24.86697           [-]
	Block[ 3] 24.79747           [-]
	Block[ 4] 22.69947           [-]
	------------------------------------------------------------------------------
	Average loading excess                             24.8182742160 +/-       1.8348377559 [-]
	Average loading excess [molecules/unit cell]        1.5511421385 +/-       0.1146773597 [-]
	Average loading excess [mol/kg framework]                    2.2027024568 +/-       0.1628478112 [-]
	Average loading excess [milligram/gram framework]           37.5132563528 +/-       2.7733894188 [-]
	Average loading excess [cm^3 (STP)/gr framework]            49.3713194460 +/-       3.6500668899 [-]
	Average loading excess [cm^3 (STP)/cm^3 framework]          52.6133954231 +/-       3.8897565379 [-]


Average Widom Rosenbluth factor:
================================
	Block[ 0] 0 [-]
	Block[ 1] 0 [-]
	Block[ 2] 0 [-]
	Block[ 3] 0 [-]
	Block[ 4] 0 [-]
	------------------------------------------------------------------------------
	[NH3] Average Widom Rosenbluth-weight:   0 +/- 0.000000 [-]

Average Widom chemical potential:
=================================
	Block[ 0] 0 [-]
	Block[ 1] 0 [-]
	Block[ 2] 0 [-]
	Block[ 3] 0 [-]
	Block[ 4] 0 [-]
	------------------------------------------------------------------------------
	[NH3] Average chemical potential:   0 +/- 0.000000 [K]

Average Widom Ideal-gas contribution:
=====================================
	Block[ 0] 0 [-]
	Block[ 1] 0 [-]
	Block[ 2] 0 [-]
	Block[ 3] 0 [-]
	Block[ 4] 0 [-]
	------------------------------------------------------------------------------
	[NH3] Average Widom Ideal-gas chemical potential:   0 +/- 0.000000 [-]

Average Widom excess contribution:
==================================
	Block[ 0] 0 [-]
	Block[ 1] 0 [-]
	Block[ 2] 0 [-]
	Block[ 3] 0 [-]
	Block[ 4] 0 [-]
	------------------------------------------------------------------------------
	[NH3] Average Widom excess chemical potential:   0 +/- 0.000000 [-]

Average Gibbs Widom Rosenbluth factor:
======================================
	Block[ 0] 0 [-]
	Block[ 1] 0 [-]
	Block[ 2] 0 [-]
	Block[ 3] 0 [-]
	Block[ 4] 0 [-]
	------------------------------------------------------------------------------
	[NH3] Average Gibbs Widom Rosenbluth-weight:   0 +/- 0.000000 [-]

Average Gibbs Widom chemical potential:
=======================================
	Block[ 0] 0 [-]
	Block[ 1] 0 [-]
	Block[ 2] 0 [-]
	Block[ 3] 0 [-]
	Block[ 4] 0 [-]
	------------------------------------------------------------------------------
	[NH3] Average Gibbs chemical potential:   0 +/- 0.000000 [K]

Average osmostat calibration for alchemical transformation:
=======================================
	Block[ 0] 0 [-]
	Block[ 1] 0 [-]
	Block[ 2] 0 [-]
	Block[ 3] 0 [-]
	Block[ 4] 0 [-]
	------------------------------------------------------------------------------
	Average osmostat calibration for alchemical transformation:   0 +/- 0.000000 [K]
	Average osmostat calibration for alchemical transformation:   0 +/- 0.000000 [kJ/mol]

Average Gibbs Widom Ideal-gas contribution:
===========================================
	Block[ 0] 0 [-]
	Block[ 1] 0 [-]
	Block[ 2] 0 [-]
	Block[ 3] 0 [-]
	Block[ 4] 0 [-]
	------------------------------------------------------------------------------
	[NH3] Average Gibbs Ideal-gas chemical potential:   0 +/- 0.000000 [-]

Average Gibbs Widom excess contribution:
===========================================
	Block[ 0] 0 [-]
	Block[ 1] 0 [-]
	Block[ 2] 0 [-]
	Block[ 3] 0 [-]
	Block[ 4] 0 [-]
	------------------------------------------------------------------------------
	[NH3] Average Gibbs excess chemical potential:   0 +/- 0.000000 [-]

Average Henry coefficient:
==========================
	Block[ 0] 0 [mol/kg/Pa]
	Block[ 1] 0 [mol/kg/Pa]
	Block[ 2] 0 [mol/kg/Pa]
	Block[ 3] 0 [mol/kg/Pa]
	Block[ 4] 0 [mol/kg/Pa]
	------------------------------------------------------------------------------
	[NH3] Average Henry coefficient:  0 +/- 0 [mol/kg/Pa]

Average adsorption energy <U_gh>_1-<U_h>_0 obtained from Widom-insertion:
(Note: the total heat of adsorption is dH=<U_gh>_1-<U_h>_0 - <U_g> - RT)
=========================================================================

Simulation finished,  0 warnings


Mon Feb 16 17:03:14 2026
Simulation finished on Monday, February 16.
The end time was 05:03 PM.

