# vtk DataFile Version 1.0
Cube
ASCII

DATASET POLYDATA
POINTS 604 float
1.931097 3.866380 0.980923
12.694055 3.698552 3.141343
6.955897 16.052015 10.420777
9.801982 12.200249 4.230005
5.454177 19.974900 11.508251
12.738555 9.031100 4.023346
7.799181 13.930489 11.291909
9.531177 14.572751 3.760447
5.706566 18.075034 10.706558
10.952566 10.128289 3.863027
12.135673 1.696804 2.542059
2.169202 5.429228 1.667979
4.779614 5.652263 7.840884
15.028078 7.851737 7.740179
6.137474 6.693693 0.544227
10.813773 6.120465 0.504876
8.515108 6.954539 0.172683
2.264301 17.130154 3.512491
7.644873 1.205201 2.299987
4.410520 15.927705 3.339787
4.288018 5.488718 1.455491
5.720993 17.391913 11.541072
11.179445 10.941126 3.189317
6.430764 16.211952 11.355673
10.486381 12.126219 3.392378
13.765971 6.652707 3.999740
0.727343 0.804471 0.192303
1.448156 7.610627 2.888218
11.418567 15.492639 1.077210
2.043746 8.313858 0.640726
10.187140 14.472804 2.902670
2.090102 7.347848 1.649370
10.550060 15.617773 2.192022
13.138147 8.798050 3.048978
-0.479909 14.237035 0.735830
0.545705 9.684274 1.992826
11.598096 13.093323 1.461626
1.269056 9.471010 0.797845
10.738540 13.226783 2.578063
12.108014 10.812795 2.128266
-0.209315 11.842478 1.165801
13.567105 4.158850 5.264652
14.520982 4.858588 6.057437
6.206340 9.206874 10.462585
5.256791 8.572972 9.611334
3.556902 7.363259 8.009417
3.849469 6.142034 7.564719
2.915272 5.441082 6.737793
4.472674 8.036342 8.879213
8.679037 6.003125 0.665195
4.487050 1.841386 3.142238
4.343843 16.968357 3.048832
6.789002 1.820251 2.509791
6.720339 3.190123 2.160119
5.436743 3.782681 2.142117
7.844160 3.971006 1.756585
7.612723 5.232245 1.134360
6.320318 5.733928 1.014767
5.252584 5.035931 1.547458
9.193541 3.608280 1.993512
9.970315 5.547421 0.851327
9.575453 2.512979 2.848756
10.189511 4.389000 1.507769
4.374715 3.100321 2.650091
8.527055 17.431125 3.535200
2.071800 5.575245 3.996924
0.052449 1.902992 0.224406
12.867460 6.859878 4.908912
6.888810 6.417185 10.893447
10.070567 16.826923 2.646148
2.753407 6.173344 1.377408
13.974415 3.418097 4.302797
12.320219 4.251325 5.550123
7.455232 9.068216 10.213827
5.801035 9.901442 11.461151
7.159379 9.665205 12.561952
17.922337 9.497377 14.722373
12.184179 21.850840 22.001807
15.030264 17.999074 15.811035
10.682459 25.773725 23.089281
17.966837 14.829925 15.604376
13.027463 19.729314 22.872939
14.759459 20.371576 15.341477
10.934848 23.873859 22.287588
16.180848 15.927114 15.444056
17.363955 7.495629 14.123088
7.397484 11.228053 13.249009
10.007897 11.451088 19.421914
20.256360 13.650562 19.321209
11.365756 12.492518 12.125257
16.042055 11.919291 12.085906
13.743390 12.753364 11.753713
7.492583 22.928979 15.093521
12.873156 7.004026 13.881017
9.638802 21.726530 14.920817
9.516300 11.287543 13.036521
10.949275 23.190738 23.122101
16.407727 16.739951 14.770347
11.659046 22.010777 22.936703
15.714663 17.925044 14.973408
18.994253 12.451532 15.580770
5.955625 6.603296 11.773333
6.676438 13.409452 14.469248
16.646849 21.291464 12.658240
7.272028 14.112683 12.221756
15.415422 20.271629 14.483700
7.318385 13.146673 13.230400
15.778342 21.416598 13.773052
18.366429 14.596875 14.630008
4.748373 20.035860 12.316860
5.773987 15.483099 13.573856
16.826378 18.892148 13.042656
6.497338 15.269835 12.378875
15.966822 19.025608 14.159093
17.336296 16.611620 13.709296
5.018967 17.641303 12.746831
18.795387 9.957676 16.845682
19.749264 10.657413 17.638467
11.434622 15.005699 22.043615
10.485073 14.371798 21.192364
8.785184 13.162084 19.590447
9.077751 11.940859 19.145749
8.143554 11.239907 18.318822
9.700956 13.835167 20.460243
13.907319 11.801950 12.246225
9.715332 7.640211 14.723268
9.572125 22.767182 14.629862
12.017284 7.619076 14.090821
11.948621 8.988948 13.741149
10.665025 9.581506 13.723147
13.072442 9.769831 13.337615
12.841005 11.031070 12.715390
11.548600 11.532753 12.595797
10.480866 10.834756 13.128488
14.421823 9.407105 13.574542
15.198597 11.346246 12.432357
14.803735 8.311804 14.429786
15.417793 10.187825 13.088799
9.602997 8.899146 14.231121
13.755337 23.229950 15.116230
7.300082 11.374070 15.577954
5.280731 7.701817 11.805436
18.095742 12.658703 16.489942
12.117092 12.216010 22.474477
15.298849 22.625748 14.227178
7.981689 11.972169 12.958438
19.202697 9.216922 15.883827
17.548501 10.050150 17.131153
12.683514 14.867041 21.794857
11.029318 15.700267 23.042181
0.584883 19.668811 0.980923
11.347840 19.500983 3.141343
5.609682 31.854446 10.420777
8.455768 28.002680 4.230005
4.107962 35.777331 11.508251
11.392340 24.833532 4.023346
6.452966 29.732920 11.291909
8.184963 30.375182 3.760447
4.360351 33.877465 10.706558
9.606352 25.930720 3.863027
10.789458 17.499235 2.542059
0.822988 21.231660 1.667979
3.433400 21.454694 7.840884
13.681864 23.654168 7.740179
4.791260 22.496124 0.544227
9.467559 21.922897 0.504876
7.168894 22.756970 0.172683
0.918086 32.932585 3.512491
6.298659 17.007632 2.299987
3.064305 31.730136 3.339787
2.941804 21.291149 1.455491
4.374779 33.194345 11.541072
9.833231 26.743557 3.189317
5.084550 32.014383 11.355673
9.140167 27.928650 3.392378
12.419757 22.455138 3.999740
-0.618871 16.606902 0.192303
0.101941 23.413059 2.888218
10.072352 31.295070 1.077210
0.697531 24.116289 0.640726
8.840925 30.275236 2.902670
0.743888 23.150280 1.649370
9.203845 31.420205 2.192022
11.791932 24.600482 3.048978
-1.826123 30.039466 0.735830
-0.800510 25.486705 1.992826
10.251882 28.895755 1.461626
-0.077158 25.273442 0.797845
9.392326 29.029214 2.578063
10.761799 26.615226 2.128266
-1.555530 27.644909 1.165801
12.220890 19.961282 5.264652
13.174768 20.661019 6.057437
4.860125 25.009305 10.462585
3.910577 24.375404 9.611334
2.210688 23.165691 8.009417
2.503255 21.944466 7.564719
1.569058 21.243514 6.737793
3.126459 23.838773 8.879213
7.332822 21.805557 0.665195
3.140835 17.643817 3.142238
2.997628 32.770789 3.048832
5.442788 17.622683 2.509791
5.374124 18.992555 2.160119
4.090529 19.585112 2.142117
6.497946 19.773437 1.756585
6.266509 21.034677 1.134360
4.974103 21.536359 1.014767
3.906369 20.838363 1.547458
7.847327 19.410712 1.993512
8.624100 21.349853 0.851327
8.229239 18.315410 2.848756
8.843297 20.191431 1.507769
3.028500 18.902753 2.650091
7.180841 33.233557 3.535200
0.725585 21.377676 3.996924
-1.293765 17.705423 0.224406
11.521246 22.662310 4.908912
5.542595 22.219616 10.893447
8.724353 32.629354 2.646148
1.407193 21.975776 1.377408
12.628201 19.220529 4.302797
10.974004 20.053757 5.550123
6.109018 24.870648 10.213827
4.454821 25.703873 11.461151
5.813165 25.467636 12.561952
16.576122 25.299808 14.722373
10.837964 37.653271 22.001807
13.684050 33.801506 15.811035
9.336244 41.576157 23.089281
16.620622 30.632357 15.604376
11.681248 35.531745 22.872939
13.413245 36.174007 15.341477
9.588634 39.676291 22.287588
14.834634 31.729546 15.444056
16.017740 23.298060 14.123088
6.051270 27.030485 13.249009
8.661682 27.253519 19.421914
18.910146 29.452993 19.321209
10.019542 28.294949 12.125257
14.695841 27.721722 12.085906
12.397176 28.555795 11.753713
6.146368 38.731410 15.093521
11.526941 22.806457 13.881017
8.292587 37.528961 14.920817
8.170086 27.089974 13.036521
9.603061 38.993170 23.122101
15.061513 32.542382 14.770347
10.312832 37.813208 22.936703
14.368449 33.727475 14.973408
17.648039 28.253963 15.580770
4.609411 22.405727 11.773333
5.330223 29.211884 14.469248
15.300634 37.093895 12.658240
5.925813 29.915114 12.221756
14.069207 36.074061 14.483700
5.972170 28.949105 13.230400
14.432127 37.219030 13.773052
17.020214 30.399307 14.630008
3.402159 35.838291 12.316860
4.427772 31.285530 13.573856
15.480164 34.694580 13.042656
5.151124 31.072267 12.378875
14.620608 34.828039 14.159093
15.990081 32.414051 13.709296
3.672753 33.443734 12.746831
17.449172 25.760107 16.845682
18.403050 26.459844 17.638467
10.088407 30.808131 22.043615
9.138859 30.174229 21.192364
7.438970 28.964516 19.590447
7.731537 27.743291 19.145749
6.797340 27.042339 18.318822
8.354741 29.637598 20.460243
12.561105 27.604382 12.246225
8.369117 23.442642 14.723268
8.225911 38.569614 14.629862
10.671070 23.421508 14.090821
10.602406 24.791380 13.741149
9.318811 25.383937 13.723147
11.726228 25.572262 13.337615
11.494791 26.833502 12.715390
10.202385 27.335184 12.595797
9.134651 26.637188 13.128488
13.075609 25.209537 13.574542
13.852382 27.148678 12.432357
13.457521 24.114235 14.429786
14.071579 25.990256 13.088799
8.256782 24.701578 14.231121
12.409123 39.032382 15.116230
5.953868 27.176501 15.577954
3.934517 23.504248 11.805436
16.749528 28.461135 16.489942
10.770878 28.018441 22.474477
13.952635 38.428179 14.227178
6.635475 27.774601 12.958438
17.856483 25.019354 15.883827
16.202286 25.852582 17.131153
11.337300 30.669473 21.794857
9.683103 31.502699 23.042181
14.334837 3.866380 0.980923
25.097795 3.698552 3.141343
19.359637 16.052015 10.420777
22.205722 12.200249 4.230005
17.857917 19.974900 11.508251
25.142295 9.031100 4.023346
20.202921 13.930489 11.291909
21.934917 14.572751 3.760447
18.110306 18.075034 10.706558
23.356306 10.128289 3.863027
24.539413 1.696804 2.542059
14.572942 5.429228 1.667979
17.183354 5.652263 7.840884
27.431818 7.851737 7.740179
18.541214 6.693693 0.544227
23.217513 6.120465 0.504876
20.918848 6.954539 0.172683
14.668041 17.130154 3.512491
20.048613 1.205201 2.299987
16.814260 15.927705 3.339787
16.691758 5.488718 1.455491
18.124733 17.391913 11.541072
23.583185 10.941126 3.189317
18.834504 16.211952 11.355673
22.890121 12.126219 3.392378
26.169711 6.652707 3.999740
13.131083 0.804471 0.192303
13.851896 7.610627 2.888218
23.822307 15.492639 1.077210
14.447486 8.313858 0.640726
22.590880 14.472804 2.902670
14.493842 7.347848 1.649370
22.953800 15.617773 2.192022
0.734407 8.798050 3.048978
25.541887 8.798050 3.048978
11.923831 14.237035 0.735830
12.949445 9.684274 1.992826
24.001836 13.093323 1.461626
13.672796 9.471010 0.797845
23.142280 13.226783 2.578063
24.511754 10.812795 2.128266
12.194425 11.842478 1.165801
25.970845 4.158850 5.264652
26.924722 4.858588 6.057437
18.610080 9.206874 10.462585
17.660531 8.572972 9.611334
15.960642 7.363259 8.009417
16.253209 6.142034 7.564719
15.319012 5.441082 6.737793
16.876414 8.036342 8.879213
21.082777 6.003125 0.665195
16.890790 1.841386 3.142238
16.747583 16.968357 3.048832
19.192742 1.820251 2.509791
19.124079 3.190123 2.160119
17.840483 3.782681 2.142117
20.247900 3.971006 1.756585
20.016463 5.232245 1.134360
18.724058 5.733928 1.014767
17.656324 5.035931 1.547458
21.597281 3.608280 1.993512
22.374055 5.547421 0.851327
21.979193 2.512979 2.848756
22.593251 4.389000 1.507769
16.778455 3.100321 2.650091
20.930795 17.431125 3.535200
14.475540 5.575245 3.996924
12.456189 1.902992 0.224406
25.271200 6.859878 4.908912
19.292550 6.417185 10.893447
22.474307 16.826923 2.646148
15.157147 6.173344 1.377408
26.378155 3.418097 4.302797
24.723959 4.251325 5.550123
19.858972 9.068216 10.213827
18.204775 9.901442 11.461151
19.563119 9.665205 12.561952
30.326077 9.497377 14.722373
24.587919 21.850840 22.001807
27.434004 17.999074 15.811035
23.086199 25.773725 23.089281
30.370577 14.829925 15.604376
25.431203 19.729314 22.872939
27.163199 20.371576 15.341477
23.338588 23.873859 22.287588
28.584588 15.927114 15.444056
29.767695 7.495629 14.123088
19.801224 11.228053 13.249009
22.411637 11.451088 19.421914
32.660100 13.650562 19.321209
23.769496 12.492518 12.125257
28.445795 11.919291 12.085906
26.147130 12.753364 11.753713
19.896323 22.928979 15.093521
25.276896 7.004026 13.881017
22.042542 21.726530 14.920817
21.920040 11.287543 13.036521
23.353015 23.190738 23.122101
28.811467 16.739951 14.770347
24.062786 22.010777 22.936703
28.118403 17.925044 14.973408
31.397993 12.451532 15.580770
18.359365 6.603296 11.773333
19.080178 13.409452 14.469248
29.050589 21.291464 12.658240
19.675768 14.112683 12.221756
27.819162 20.271629 14.483700
19.722125 13.146673 13.230400
28.182082 21.416598 13.773052
5.962689 14.596875 14.630008
30.770169 14.596875 14.630008
17.152113 20.035860 12.316860
18.177727 15.483099 13.573856
29.230118 18.892148 13.042656
18.901078 15.269835 12.378875
28.370562 19.025608 14.159093
29.740036 16.611620 13.709296
17.422707 17.641303 12.746831
31.199127 9.957676 16.845682
32.153004 10.657413 17.638467
23.838362 15.005699 22.043615
22.888813 14.371798 21.192364
21.188924 13.162084 19.590447
21.481491 11.940859 19.145749
20.547294 11.239907 18.318822
22.104696 13.835167 20.460243
26.311059 11.801950 12.246225
22.119072 7.640211 14.723268
21.975865 22.767182 14.629862
24.421024 7.619076 14.090821
24.352361 8.988948 13.741149
23.068765 9.581506 13.723147
25.476182 9.769831 13.337615
25.244745 11.031070 12.715390
23.952340 11.532753 12.595797
22.884606 10.834756 13.128488
26.825563 9.407105 13.574542
27.602337 11.346246 12.432357
27.207475 8.311804 14.429786
27.821533 10.187825 13.088799
22.006737 8.899146 14.231121
26.159077 23.229950 15.116230
19.703822 11.374070 15.577954
17.684471 7.701817 11.805436
30.499482 12.658703 16.489942
24.520832 12.216010 22.474477
27.702589 22.625748 14.227178
20.385429 11.972169 12.958438
31.606437 9.216922 15.883827
29.952241 10.050150 17.131153
25.087254 14.867041 21.794857
23.433058 15.700267 23.042181
12.988623 19.668811 0.980923
23.751580 19.500983 3.141343
18.013422 31.854446 10.420777
20.859508 28.002680 4.230005
16.511702 35.777331 11.508251
23.796080 24.833532 4.023346
18.856706 29.732920 11.291909
20.588703 30.375182 3.760447
16.764091 33.877465 10.706558
22.010092 25.930720 3.863027
23.193198 17.499235 2.542059
13.226728 21.231660 1.667979
15.837140 21.454694 7.840884
26.085604 23.654168 7.740179
17.195000 22.496124 0.544227
21.871299 21.922897 0.504876
19.572634 22.756970 0.172683
13.321826 32.932585 3.512491
18.702399 17.007632 2.299987
15.468045 31.730136 3.339787
15.345544 21.291149 1.455491
16.778519 33.194345 11.541072
22.236971 26.743557 3.189317
17.488290 32.014383 11.355673
21.543907 27.928650 3.392378
24.823497 22.455138 3.999740
11.784869 16.606902 0.192303
12.505681 23.413059 2.888218
22.476092 31.295070 1.077210
13.101271 24.116289 0.640726
21.244665 30.275236 2.902670
13.147628 23.150280 1.649370
21.607585 31.420205 2.192022
-0.611808 24.600482 3.048978
24.195672 24.600482 3.048978
10.577617 30.039466 0.735830
11.603230 25.486705 1.992826
22.655622 28.895755 1.461626
12.326582 25.273442 0.797845
21.796066 29.029214 2.578063
23.165539 26.615226 2.128266
10.848210 27.644909 1.165801
24.624630 19.961282 5.264652
25.578508 20.661019 6.057437
17.263865 25.009305 10.462585
16.314317 24.375404 9.611334
14.614428 23.165691 8.009417
14.906995 21.944466 7.564719
13.972798 21.243514 6.737793
15.530199 23.838773 8.879213
19.736562 21.805557 0.665195
15.544575 17.643817 3.142238
15.401368 32.770789 3.048832
17.846528 17.622683 2.509791
17.777864 18.992555 2.160119
16.494269 19.585112 2.142117
18.901686 19.773437 1.756585
18.670249 21.034677 1.134360
17.377843 21.536359 1.014767
16.310109 20.838363 1.547458
20.251067 19.410712 1.993512
21.027840 21.349853 0.851327
20.632979 18.315410 2.848756
21.247037 20.191431 1.507769
15.432240 18.902753 2.650091
19.584581 33.233557 3.535200
13.129325 21.377676 3.996924
11.109975 17.705423 0.224406
23.924986 22.662310 4.908912
17.946335 22.219616 10.893447
21.128093 32.629354 2.646148
13.810933 21.975776 1.377408
25.031941 19.220529 4.302797
23.377744 20.053757 5.550123
18.512758 24.870648 10.213827
16.858561 25.703873 11.461151
18.216905 25.467636 12.561952
28.979862 25.299808 14.722373
23.241704 37.653271 22.001807
26.087790 33.801506 15.811035
21.739984 41.576157 23.089281
29.024362 30.632357 15.604376
24.084988 35.531745 22.872939
25.816985 36.174007 15.341477
21.992374 39.676291 22.287588
27.238374 31.729546 15.444056
28.421480 23.298060 14.123088
18.455010 27.030485 13.249009
21.065422 27.253519 19.421914
31.313886 29.452993 19.321209
22.423282 28.294949 12.125257
27.099581 27.721722 12.085906
24.800916 28.555795 11.753713
18.550108 38.731410 15.093521
23.930681 22.806457 13.881017
20.696327 37.528961 14.920817
20.573826 27.089974 13.036521
22.006801 38.993170 23.122101
27.465253 32.542382 14.770347
22.716572 37.813208 22.936703
26.772189 33.727475 14.973408
30.051779 28.253963 15.580770
17.013151 22.405727 11.773333
17.733963 29.211884 14.469248
27.704374 37.093895 12.658240
18.329553 29.915114 12.221756
26.472947 36.074061 14.483700
18.375910 28.949105 13.230400
26.835867 37.219030 13.773052
4.616474 30.399307 14.630008
29.423954 30.399307 14.630008
15.805899 35.838291 12.316860
16.831512 31.285530 13.573856
27.883904 34.694580 13.042656
17.554864 31.072267 12.378875
27.024348 34.828039 14.159093
28.393821 32.414051 13.709296
16.076493 33.443734 12.746831
29.852912 25.760107 16.845682
30.806790 26.459844 17.638467
22.492147 30.808131 22.043615
21.542599 30.174229 21.192364
19.842710 28.964516 19.590447
20.135277 27.743291 19.145749
19.201080 27.042339 18.318822
20.758481 29.637598 20.460243
24.964845 27.604382 12.246225
20.772857 23.442642 14.723268
20.629651 38.569614 14.629862
23.074810 23.421508 14.090821
23.006146 24.791380 13.741149
21.722551 25.383937 13.723147
24.129968 25.572262 13.337615
23.898531 26.833502 12.715390
22.606125 27.335184 12.595797
21.538391 26.637188 13.128488
25.479349 25.209537 13.574542
26.256122 27.148678 12.432357
25.861261 24.114235 14.429786
26.475319 25.990256 13.088799
20.660522 24.701578 14.231121
24.812863 39.032382 15.116230
18.357608 27.176501 15.577954
16.338257 23.504248 11.805436
29.153268 28.461135 16.489942
23.174618 28.018441 22.474477
26.356375 38.428179 14.227178
19.039215 27.774601 12.958438
30.260223 25.019354 15.883827
28.606026 25.852582 17.131153
23.741040 30.669473 21.794857
22.086843 31.502699 23.042181
POINT_DATA 604
SCALARS my_scalars float
LOOKUP_TABLE default
1.4
1.4
1.09
1.09
1.09
1.09
1.09
1.09
1.09
1.09
1.09
1.09
1.09
1.09
1.09
1.09
1.09
1.09
1.09
1.09
1.09
1.7
1.7
1.7
1.7
1.7
1.7
1.7
1.7
1.7
1.7
1.7
1.7
1.7
1.7
1.7
1.7
1.7
1.7
1.7
1.7
1.7
1.7
1.7
1.7
1.7
1.7
1.7
1.7
1.7
1.7
1.7
1.7
1.7
1.7
1.7
1.7
1.7
1.7
1.7
1.7
1.7
1.55
1.55
1.55
1.52
1.52
1.52
1.52
1.52
1.52
1.52
1.52
1.52
1.52
1.4
1.4
1.09
1.09
1.09
1.09
1.09
1.09
1.09
1.09
1.09
1.09
1.09
1.09
1.09
1.09
1.09
1.09
1.09
1.09
1.09
1.7
1.7
1.7
1.7
1.7
1.7
1.7
1.7
1.7
1.7
1.7
1.7
1.7
1.7
1.7
1.7
1.7
1.7
1.7
1.7
1.7
1.7
1.7
1.7
1.7
1.7
1.7
1.7
1.7
1.7
1.7
1.7
1.7
1.7
1.7
1.7
1.7
1.7
1.7
1.7
1.7
1.55
1.55
1.55
1.52
1.52
1.52
1.52
1.52
1.52
1.52
1.52
1.52
1.52
1.4
1.4
1.09
1.09
1.09
1.09
1.09
1.09
1.09
1.09
1.09
1.09
1.09
1.09
1.09
1.09
1.09
1.09
1.09
1.09
1.09
1.7
1.7
1.7
1.7
1.7
1.7
1.7
1.7
1.7
1.7
1.7
1.7
1.7
1.7
1.7
1.7
1.7
1.7
1.7
1.7
1.7
1.7
1.7
1.7
1.7
1.7
1.7
1.7
1.7
1.7
1.7
1.7
1.7
1.7
1.7
1.7
1.7
1.7
1.7
1.7
1.7
1.55
1.55
1.55
1.52
1.52
1.52
1.52
1.52
1.52
1.52
1.52
1.52
1.52
1.4
1.4
1.09
1.09
1.09
1.09
1.09
1.09
1.09
1.09
1.09
1.09
1.09
1.09
1.09
1.09
1.09
1.09
1.09
1.09
1.09
1.7
1.7
1.7
1.7
1.7
1.7
1.7
1.7
1.7
1.7
1.7
1.7
1.7
1.7
1.7
1.7
1.7
1.7
1.7
1.7
1.7
1.7
1.7
1.7
1.7
1.7
1.7
1.7
1.7
1.7
1.7
1.7
1.7
1.7
1.7
1.7
1.7
1.7
1.7
1.7
1.7
1.55
1.55
1.55
1.52
1.52
1.52
1.52
1.52
1.52
1.52
1.52
1.52
1.52
1.4
1.4
1.09
1.09
1.09
1.09
1.09
1.09
1.09
1.09
1.09
1.09
1.09
1.09
1.09
1.09
1.09
1.09
1.09
1.09
1.09
1.7
1.7
1.7
1.7
1.7
1.7
1.7
1.7
1.7
1.7
1.7
1.7
1.7
1.7
1.7
1.7
1.7
1.7
1.7
1.7
1.7
1.7
1.7
1.7
1.7
1.7
1.7
1.7
1.7
1.7
1.7
1.7
1.7
1.7
1.7
1.7
1.7
1.7
1.7
1.7
1.7
1.7
1.55
1.55
1.55
1.52
1.52
1.52
1.52
1.52
1.52
1.52
1.52
1.52
1.52
1.4
1.4
1.09
1.09
1.09
1.09
1.09
1.09
1.09
1.09
1.09
1.09
1.09
1.09
1.09
1.09
1.09
1.09
1.09
1.09
1.09
1.7
1.7
1.7
1.7
1.7
1.7
1.7
1.7
1.7
1.7
1.7
1.7
1.7
1.7
1.7
1.7
1.7
1.7
1.7
1.7
1.7
1.7
1.7
1.7
1.7
1.7
1.7
1.7
1.7
1.7
1.7
1.7
1.7
1.7
1.7
1.7
1.7
1.7
1.7
1.7
1.7
1.7
1.55
1.55
1.55
1.52
1.52
1.52
1.52
1.52
1.52
1.52
1.52
1.52
1.52
1.4
1.4
1.09
1.09
1.09
1.09
1.09
1.09
1.09
1.09
1.09
1.09
1.09
1.09
1.09
1.09
1.09
1.09
1.09
1.09
1.09
1.7
1.7
1.7
1.7
1.7
1.7
1.7
1.7
1.7
1.7
1.7
1.7
1.7
1.7
1.7
1.7
1.7
1.7
1.7
1.7
1.7
1.7
1.7
1.7
1.7
1.7
1.7
1.7
1.7
1.7
1.7
1.7
1.7
1.7
1.7
1.7
1.7
1.7
1.7
1.7
1.7
1.7
1.55
1.55
1.55
1.52
1.52
1.52
1.52
1.52
1.52
1.52
1.52
1.52
1.52
1.4
1.4
1.09
1.09
1.09
1.09
1.09
1.09
1.09
1.09
1.09
1.09
1.09
1.09
1.09
1.09
1.09
1.09
1.09
1.09
1.09
1.7
1.7
1.7
1.7
1.7
1.7
1.7
1.7
1.7
1.7
1.7
1.7
1.7
1.7
1.7
1.7
1.7
1.7
1.7
1.7
1.7
1.7
1.7
1.7
1.7
1.7
1.7
1.7
1.7
1.7
1.7
1.7
1.7
1.7
1.7
1.7
1.7
1.7
1.7
1.7
1.7
1.7
1.55
1.55
1.55
1.52
1.52
1.52
1.52
1.52
1.52
1.52
1.52
1.52
1.52
VECTORS vectors float
0.4375 0 0
0.4375 0 0
0.25 0 0
0.25 0 0
0.25 0 0
0.25 0 0
0.25 0 0
0.25 0 0
0.25 0 0
0.25 0 0
0.25 0 0
0.25 0 0
0.25 0 0
0.25 0 0
0.25 0 0
0.25 0 0
0.25 0 0
0.25 0 0
0.25 0 0
0.25 0 0
0.25 0 0
0.3125 0 0
0.3125 0 0
0.3125 0 0
0.3125 0 0
0.3125 0 0
0.3125 0 0
0.3125 0 0
0.3125 0 0
0.3125 0 0
0.3125 0 0
0.3125 0 0
0.3125 0 0
0.3125 0 0
0.3125 0 0
0.3125 0 0
0.3125 0 0
0.3125 0 0
0.3125 0 0
0.3125 0 0
0.3125 0 0
0.3125 0 0
0.3125 0 0
0.3125 0 0
0.3125 0 0
0.3125 0 0
0.3125 0 0
0.3125 0 0
0.3125 0 0
0.3125 0 0
0.3125 0 0
0.3125 0 0
0.3125 0 0
0.3125 0 0
0.3125 0 0
0.3125 0 0
0.3125 0 0
0.3125 0 0
0.3125 0 0
0.3125 0 0
0.3125 0 0
0.3125 0 0
0 0 0
0 0 0
0 0 0
0.03125 0 0
0.03125 0 0
0.03125 0 0
0.03125 0 0
0.03125 0 0
0.03125 0 0
0.03125 0 0
0.03125 0 0
0.03125 0 0
0.03125 0 0
0.4375 0 0
0.4375 0 0
0.25 0 0
0.25 0 0
0.25 0 0
0.25 0 0
0.25 0 0
0.25 0 0
0.25 0 0
0.25 0 0
0.25 0 0
0.25 0 0
0.25 0 0
0.25 0 0
0.25 0 0
0.25 0 0
0.25 0 0
0.25 0 0
0.25 0 0
0.25 0 0
0.25 0 0
0.3125 0 0
0.3125 0 0
0.3125 0 0
0.3125 0 0
0.3125 0 0
0.3125 0 0
0.3125 0 0
0.3125 0 0
0.3125 0 0
0.3125 0 0
0.3125 0 0
0.3125 0 0
0.3125 0 0
0.3125 0 0
0.3125 0 0
0.3125 0 0
0.3125 0 0
0.3125 0 0
0.3125 0 0
0.3125 0 0
0.3125 0 0
0.3125 0 0
0.3125 0 0
0.3125 0 0
0.3125 0 0
0.3125 0 0
0.3125 0 0
0.3125 0 0
0.3125 0 0
0.3125 0 0
0.3125 0 0
0.3125 0 0
0.3125 0 0
0.3125 0 0
0.3125 0 0
0.3125 0 0
0.3125 0 0
0.3125 0 0
0.3125 0 0
0.3125 0 0
0.3125 0 0
0 0 0
0 0 0
0 0 0
0.03125 0 0
0.03125 0 0
0.03125 0 0
0.03125 0 0
0.03125 0 0
0.03125 0 0
0.03125 0 0
0.03125 0 0
0.03125 0 0
0.03125 0 0
0.4375 0 0
0.4375 0 0
0.25 0 0
0.25 0 0
0.25 0 0
0.25 0 0
0.25 0 0
0.25 0 0
0.25 0 0
0.25 0 0
0.25 0 0
0.25 0 0
0.25 0 0
0.25 0 0
0.25 0 0
0.25 0 0
0.25 0 0
0.25 0 0
0.25 0 0
0.25 0 0
0.25 0 0
0.3125 0 0
0.3125 0 0
0.3125 0 0
0.3125 0 0
0.3125 0 0
0.3125 0 0
0.3125 0 0
0.3125 0 0
0.3125 0 0
0.3125 0 0
0.3125 0 0
0.3125 0 0
0.3125 0 0
0.3125 0 0
0.3125 0 0
0.3125 0 0
0.3125 0 0
0.3125 0 0
0.3125 0 0
0.3125 0 0
0.3125 0 0
0.3125 0 0
0.3125 0 0
0.3125 0 0
0.3125 0 0
0.3125 0 0
0.3125 0 0
0.3125 0 0
0.3125 0 0
0.3125 0 0
0.3125 0 0
0.3125 0 0
0.3125 0 0
0.3125 0 0
0.3125 0 0
0.3125 0 0
0.3125 0 0
0.3125 0 0
0.3125 0 0
0.3125 0 0
0.3125 0 0
0 0 0
0 0 0
0 0 0
0.03125 0 0
0.03125 0 0
0.03125 0 0
0.03125 0 0
0.03125 0 0
0.03125 0 0
0.03125 0 0
0.03125 0 0
0.03125 0 0
0.03125 0 0
0.4375 0 0
0.4375 0 0
0.25 0 0
0.25 0 0
0.25 0 0
0.25 0 0
0.25 0 0
0.25 0 0
0.25 0 0
0.25 0 0
0.25 0 0
0.25 0 0
0.25 0 0
0.25 0 0
0.25 0 0
0.25 0 0
0.25 0 0
0.25 0 0
0.25 0 0
0.25 0 0
0.25 0 0
0.3125 0 0
0.3125 0 0
0.3125 0 0
0.3125 0 0
0.3125 0 0
0.3125 0 0
0.3125 0 0
0.3125 0 0
0.3125 0 0
0.3125 0 0
0.3125 0 0
0.3125 0 0
0.3125 0 0
0.3125 0 0
0.3125 0 0
0.3125 0 0
0.3125 0 0
0.3125 0 0
0.3125 0 0
0.3125 0 0
0.3125 0 0
0.3125 0 0
0.3125 0 0
0.3125 0 0
0.3125 0 0
0.3125 0 0
0.3125 0 0
0.3125 0 0
0.3125 0 0
0.3125 0 0
0.3125 0 0
0.3125 0 0
0.3125 0 0
0.3125 0 0
0.3125 0 0
0.3125 0 0
0.3125 0 0
0.3125 0 0
0.3125 0 0
0.3125 0 0
0.3125 0 0
0 0 0
0 0 0
0 0 0
0.03125 0 0
0.03125 0 0
0.03125 0 0
0.03125 0 0
0.03125 0 0
0.03125 0 0
0.03125 0 0
0.03125 0 0
0.03125 0 0
0.03125 0 0
0.4375 0 0
0.4375 0 0
0.25 0 0
0.25 0 0
0.25 0 0
0.25 0 0
0.25 0 0
0.25 0 0
0.25 0 0
0.25 0 0
0.25 0 0
0.25 0 0
0.25 0 0
0.25 0 0
0.25 0 0
0.25 0 0
0.25 0 0
0.25 0 0
0.25 0 0
0.25 0 0
0.25 0 0
0.3125 0 0
0.3125 0 0
0.3125 0 0
0.3125 0 0
0.3125 0 0
0.3125 0 0
0.3125 0 0
0.3125 0 0
0.3125 0 0
0.3125 0 0
0.3125 0 0
0.3125 0 0
0.3125 0 0
0.3125 0 0
0.3125 0 0
0.3125 0 0
0.3125 0 0
0.3125 0 0
0.3125 0 0
0.3125 0 0
0.3125 0 0
0.3125 0 0
0.3125 0 0
0.3125 0 0
0.3125 0 0
0.3125 0 0
0.3125 0 0
0.3125 0 0
0.3125 0 0
0.3125 0 0
0.3125 0 0
0.3125 0 0
0.3125 0 0
0.3125 0 0
0.3125 0 0
0.3125 0 0
0.3125 0 0
0.3125 0 0
0.3125 0 0
0.3125 0 0
0.3125 0 0
0.3125 0 0
0 0 0
0 0 0
0 0 0
0.03125 0 0
0.03125 0 0
0.03125 0 0
0.03125 0 0
0.03125 0 0
0.03125 0 0
0.03125 0 0
0.03125 0 0
0.03125 0 0
0.03125 0 0
0.4375 0 0
0.4375 0 0
0.25 0 0
0.25 0 0
0.25 0 0
0.25 0 0
0.25 0 0
0.25 0 0
0.25 0 0
0.25 0 0
0.25 0 0
0.25 0 0
0.25 0 0
0.25 0 0
0.25 0 0
0.25 0 0
0.25 0 0
0.25 0 0
0.25 0 0
0.25 0 0
0.25 0 0
0.3125 0 0
0.3125 0 0
0.3125 0 0
0.3125 0 0
0.3125 0 0
0.3125 0 0
0.3125 0 0
0.3125 0 0
0.3125 0 0
0.3125 0 0
0.3125 0 0
0.3125 0 0
0.3125 0 0
0.3125 0 0
0.3125 0 0
0.3125 0 0
0.3125 0 0
0.3125 0 0
0.3125 0 0
0.3125 0 0
0.3125 0 0
0.3125 0 0
0.3125 0 0
0.3125 0 0
0.3125 0 0
0.3125 0 0
0.3125 0 0
0.3125 0 0
0.3125 0 0
0.3125 0 0
0.3125 0 0
0.3125 0 0
0.3125 0 0
0.3125 0 0
0.3125 0 0
0.3125 0 0
0.3125 0 0
0.3125 0 0
0.3125 0 0
0.3125 0 0
0.3125 0 0
0.3125 0 0
0 0 0
0 0 0
0 0 0
0.03125 0 0
0.03125 0 0
0.03125 0 0
0.03125 0 0
0.03125 0 0
0.03125 0 0
0.03125 0 0
0.03125 0 0
0.03125 0 0
0.03125 0 0
0.4375 0 0
0.4375 0 0
0.25 0 0
0.25 0 0
0.25 0 0
0.25 0 0
0.25 0 0
0.25 0 0
0.25 0 0
0.25 0 0
0.25 0 0
0.25 0 0
0.25 0 0
0.25 0 0
0.25 0 0
0.25 0 0
0.25 0 0
0.25 0 0
0.25 0 0
0.25 0 0
0.25 0 0
0.3125 0 0
0.3125 0 0
0.3125 0 0
0.3125 0 0
0.3125 0 0
0.3125 0 0
0.3125 0 0
0.3125 0 0
0.3125 0 0
0.3125 0 0
0.3125 0 0
0.3125 0 0
0.3125 0 0
0.3125 0 0
0.3125 0 0
0.3125 0 0
0.3125 0 0
0.3125 0 0
0.3125 0 0
0.3125 0 0
0.3125 0 0
0.3125 0 0
0.3125 0 0
0.3125 0 0
0.3125 0 0
0.3125 0 0
0.3125 0 0
0.3125 0 0
0.3125 0 0
0.3125 0 0
0.3125 0 0
0.3125 0 0
0.3125 0 0
0.3125 0 0
0.3125 0 0
0.3125 0 0
0.3125 0 0
0.3125 0 0
0.3125 0 0
0.3125 0 0
0.3125 0 0
0.3125 0 0
0 0 0
0 0 0
0 0 0
0.03125 0 0
0.03125 0 0
0.03125 0 0
0.03125 0 0
0.03125 0 0
0.03125 0 0
0.03125 0 0
0.03125 0 0
0.03125 0 0
0.03125 0 0
0.4375 0 0
0.4375 0 0
0.25 0 0
0.25 0 0
0.25 0 0
0.25 0 0
0.25 0 0
0.25 0 0
0.25 0 0
0.25 0 0
0.25 0 0
0.25 0 0
0.25 0 0
0.25 0 0
0.25 0 0
0.25 0 0
0.25 0 0
0.25 0 0
0.25 0 0
0.25 0 0
0.25 0 0
0.3125 0 0
0.3125 0 0
0.3125 0 0
0.3125 0 0
0.3125 0 0
0.3125 0 0
0.3125 0 0
0.3125 0 0
0.3125 0 0
0.3125 0 0
0.3125 0 0
0.3125 0 0
0.3125 0 0
0.3125 0 0
0.3125 0 0
0.3125 0 0
0.3125 0 0
0.3125 0 0
0.3125 0 0
0.3125 0 0
0.3125 0 0
0.3125 0 0
0.3125 0 0
0.3125 0 0
0.3125 0 0
0.3125 0 0
0.3125 0 0
0.3125 0 0
0.3125 0 0
0.3125 0 0
0.3125 0 0
0.3125 0 0
0.3125 0 0
0.3125 0 0
0.3125 0 0
0.3125 0 0
0.3125 0 0
0.3125 0 0
0.3125 0 0
0.3125 0 0
0.3125 0 0
0.3125 0 0
0 0 0
0 0 0
0 0 0
0.03125 0 0
0.03125 0 0
0.03125 0 0
0.03125 0 0
0.03125 0 0
0.03125 0 0
0.03125 0 0
0.03125 0 0
0.03125 0 0
0.03125 0 0
