# vtk DataFile Version 1.0
Cube
ASCII

DATASET POLYDATA
POINTS 728 float
-1.916013 -0.261542 7.744648
10.798893 1.293240 7.973512
10.986438 -1.687851 8.937737
-2.994490 0.587267 10.573111
-1.901137 -2.405190 14.181795
15.554922 13.973463 0.580988
-2.867770 11.221517 14.431656
0.354711 3.901382 1.441374
10.308879 2.321288 3.505081
13.933309 4.107874 2.293052
11.749443 4.272392 3.277137
13.305988 14.237742 1.419938
-0.597110 4.538451 6.842413
-0.470657 6.874992 6.143350
11.971225 5.486375 9.816041
9.560549 10.961368 10.813951
10.733026 6.913016 10.655253
9.341613 8.646773 11.554605
12.577593 10.733710 7.054393
-1.389352 9.104262 6.170765
5.901886 12.448440 7.554075
3.581826 11.861638 7.899811
1.996202 0.946301 9.453601
3.581703 2.189107 9.878537
5.385232 3.726192 9.900855
7.121919 -1.472262 7.598112
7.953199 4.043074 10.097102
1.277861 12.564906 8.302995
2.765086 3.829937 0.280998
1.357642 0.341838 0.297540
1.871728 2.690975 0.586507
11.260341 2.204995 3.010066
12.083877 3.316555 2.893981
13.346310 3.205978 2.321725
13.818514 1.967553 1.831792
12.941868 0.831726 1.910418
-0.331556 1.817066 1.284984
0.076923 0.531906 0.839188
15.239739 14.954490 0.914547
13.951551 15.105782 1.413719
0.599290 2.892055 1.154987
2.238627 1.412026 0.161006
11.657781 0.955776 2.521379
10.769990 -0.201533 2.827014
-2.837692 5.851607 9.047664
-1.186392 5.281514 7.366997
11.073584 10.537533 9.320229
10.041143 8.888788 10.764308
10.856105 7.895035 10.232493
-2.363541 3.501935 8.564353
11.338484 11.969715 9.071955
-1.128150 6.605202 6.962015
-2.055578 4.904459 8.391285
11.774820 8.183161 9.193375
10.156155 10.199721 10.325412
11.829618 9.513791 8.692154
12.633056 7.195788 8.624297
-1.971263 7.554518 7.551640
-2.001318 8.838954 7.025676
12.622778 9.788819 7.562764
-0.112056 -0.440984 8.810952
3.394946 12.863828 8.268467
1.243588 -0.949200 8.930919
6.860264 2.336306 9.174523
5.577052 2.715171 9.558478
4.524645 1.815678 9.519158
8.495749 0.438127 8.829816
4.701214 0.507660 9.018977
6.007920 0.104210 8.621772
3.619344 -0.412390 8.896781
3.870672 -1.724263 8.407751
5.715052 13.427072 7.982093
6.183906 -1.170116 8.041958
2.281610 -0.052989 9.170988
2.086011 13.256553 8.510566
7.111420 0.986064 8.796885
7.892940 3.394207 9.228849
11.953461 -0.017319 8.807386
-2.254844 0.484708 13.470210
3.410090 4.404354 1.297111
10.681350 14.740044 1.816600
10.668298 -0.501404 4.117946
12.584644 2.891025 7.579867
10.451584 12.847171 9.376912
-2.175676 2.911167 9.682476
12.506775 12.339495 8.685398
8.608054 3.622214 8.266024
-0.657804 -0.499931 7.666647
9.497072 1.219656 8.621148
-0.717252 0.110947 9.793791
8.686870 -0.788601 9.207296
-7.023237 -3.912816 22.224129
5.691669 -2.358035 22.452992
5.879214 -5.339126 23.417217
-8.101714 -3.064007 25.052592
-7.008361 -6.056465 28.661276
10.447698 10.322188 15.060468
-7.974994 7.570242 28.911136
-4.752513 0.250108 15.920854
5.201655 -1.329987 17.984562
8.826085 0.456599 16.772532
6.642219 0.621117 17.756618
8.198764 10.586467 15.899419
-5.704334 0.887177 21.321893
-5.577881 3.223718 20.622831
6.864001 1.835100 24.295521
4.453325 7.310094 25.293431
5.625802 3.261741 25.134733
4.234389 4.995498 26.034085
7.470369 7.082435 21.533873
-6.496576 5.452987 20.650245
0.794662 8.797166 22.033555
-1.525398 8.210363 22.379291
-3.111022 -2.704973 23.933081
-1.525521 -1.462168 24.358017
0.278008 0.074917 24.380336
2.014696 -5.123537 22.077593
2.845975 0.391800 24.576582
-3.829363 8.913632 22.782475
-2.342137 0.178662 14.760479
-3.749582 -3.309437 14.777020
-3.235495 -0.960300 15.065988
6.153117 -1.446280 17.489546
6.976653 -0.334719 17.373462
8.239086 -0.445297 16.801206
8.711290 -1.683721 16.311272
7.834644 -2.819549 16.389898
-5.438779 -1.834208 15.764465
-5.030301 -3.119369 15.318668
10.132515 11.303215 15.394027
8.844328 11.454507 15.893199
-4.507934 -0.759219 15.634467
-2.868597 -2.239249 14.640486
6.550557 -2.695499 17.000860
5.662766 -3.852808 17.306494
-7.944916 2.200333 23.527144
-6.293616 1.630239 21.846478
5.966360 6.886258 23.799710
4.933919 5.237514 25.243788
5.748881 4.243760 24.711973
-7.470765 -0.149340 23.043834
6.231260 8.318440 23.551435
-6.235374 2.953927 21.441495
-7.162802 1.253185 22.870766
6.667596 4.531886 23.672856
5.048931 6.548446 24.804892
6.722395 5.862516 23.171634
7.525832 3.544513 23.103777
-7.078486 3.903244 22.031120
-7.108542 5.187679 21.505156
7.515554 6.137544 22.042244
-5.219280 -4.092259 23.290432
-1.712278 9.212553 22.747948
-3.863636 -4.600475 23.410399
1.753040 -1.314968 23.654003
0.469828 -0.936104 24.037959
-0.582579 -1.835597 23.998638
3.388525 -3.213147 23.309297
-0.406010 -3.143615 23.498457
0.900696 -3.547064 23.101252
-1.487880 -4.063665 23.376261
-1.236552 -5.375537 22.887232
0.607828 9.775797 22.461573
1.076682 -4.821391 22.521439
-2.825614 -3.704264 23.650468
-3.021213 9.605278 22.990047
2.004197 -2.665211 23.276365
2.785716 -0.257068 23.708330
6.846237 -3.668593 23.286866
-7.362067 -3.166567 27.949691
-1.697134 0.753079 15.776591
5.574126 11.088770 16.296080
5.561074 -4.152679 18.597427
7.477420 -0.760250 22.059348
5.344360 9.195896 23.856392
-7.282899 -0.740108 24.161956
7.399551 8.688221 23.164878
3.500830 -0.029061 22.745504
-5.765028 -4.151206 22.146128
4.389848 -2.431619 23.100628
-5.824476 -3.540327 24.273271
3.579646 -4.439876 23.686776
-1.346605 15.247989 7.744648
11.368301 16.802771 7.973512
11.555846 13.821680 8.937737
-2.425082 16.096798 10.573111
-1.331729 13.104341 14.181795
16.124330 29.482994 0.580988
-2.298362 26.731048 14.431656
0.924119 19.410914 1.441374
10.878287 17.830819 3.505081
14.502717 19.617405 2.293052
12.318851 19.781923 3.277137
13.875396 29.747273 1.419938
-0.027702 20.047982 6.842413
0.098751 22.384524 6.143350
12.540633 20.995906 9.816041
10.129957 26.470899 10.813951
11.302434 22.422547 10.655253
9.911021 24.156304 11.554605
13.147001 26.243241 7.054393
-0.819944 24.613793 6.170765
6.471294 27.957971 7.554075
4.151234 27.371169 7.899811
2.565610 16.455833 9.453601
4.151111 17.698638 9.878537
5.954640 19.235723 9.900855
7.691327 14.037269 7.598112
8.522607 19.552605 10.097102
1.847269 28.074437 8.302995
3.334494 19.339468 0.280998
1.927050 15.851369 0.297540
2.441136 18.200506 0.586507
11.829749 17.714526 3.010066
12.653285 18.826086 2.893981
13.915718 18.715509 2.321725
14.387922 17.477084 1.831792
13.511276 16.341257 1.910418
0.237852 17.326597 1.284984
0.646331 16.041437 0.839188
15.809147 30.464021 0.914547
14.520959 30.615313 1.413719
1.168698 18.401586 1.154987
2.808035 16.921557 0.161006
12.227189 16.465307 2.521379
11.339398 15.307998 2.827014
-2.268284 21.361138 9.047664
-0.616984 20.791045 7.366997
11.642992 26.047064 9.320229
10.610551 24.398320 10.764308
11.425513 23.404566 10.232493
-1.794133 19.011466 8.564353
11.907892 27.479246 9.071955
-0.558742 22.114733 6.962015
-1.486170 20.413991 8.391285
12.344228 23.692692 9.193375
10.725563 25.709252 10.325412
12.399026 25.023322 8.692154
13.202464 22.705319 8.624297
-1.401854 23.064049 7.551640
-1.431910 24.348485 7.025676
13.192186 25.298350 7.562764
0.457352 15.068547 8.810952
3.964354 28.373359 8.268467
1.812996 14.560331 8.930919
7.429672 17.845837 9.174523
6.146460 18.224702 9.558478
5.094053 17.325209 9.519158
9.065157 15.947658 8.829816
5.270622 16.017191 9.018977
6.577328 15.613741 8.621772
4.188752 15.097141 8.896781
4.440080 13.785268 8.407751
6.284460 28.936603 7.982093
6.753314 14.339415 8.041958
2.851018 15.456542 9.170988
2.655419 28.766084 8.510566
7.680828 16.495595 8.796885
8.462348 18.903738 9.228849
12.522869 15.492213 8.807386
-1.685436 15.994239 13.470210
3.979498 19.913885 1.297111
11.250758 30.249575 1.816600
11.237706 15.008127 4.117946
13.154052 18.400556 7.579867
11.020992 28.356702 9.376912
-1.606268 18.420698 9.682476
13.076183 27.849027 8.685398
9.177462 19.131745 8.266024
-0.088396 15.009600 7.666647
10.066480 16.729187 8.621148
-0.147844 15.620478 9.793791
9.256278 14.720930 9.207296
-6.453829 11.596715 22.224129
6.261077 13.151496 22.452992
6.448622 10.170405 23.417217
-7.532306 12.445524 25.052592
-6.438953 9.453066 28.661276
11.017106 25.831719 15.060468
-7.405586 23.079773 28.911136
-4.183105 15.759639 15.920854
5.771063 14.179544 17.984562
9.395493 15.966130 16.772532
7.211627 16.130648 17.756618
8.768172 26.095998 15.899419
-5.134926 16.396708 21.321893
-5.008473 18.733249 20.622831
7.433409 17.344631 24.295521
5.022733 22.819625 25.293431
6.195210 18.771272 25.134733
4.803797 20.505029 26.034085
8.039777 22.591966 21.533873
-5.927168 20.962518 20.650245
1.364070 24.306697 22.033555
-0.955990 23.719894 22.379291
-2.541614 12.804558 23.933081
-0.956113 14.047363 24.358017
0.847416 15.584448 24.380336
2.584104 10.385994 22.077593
3.415383 15.901331 24.576582
-3.259955 24.423163 22.782475
-1.772729 15.688193 14.760479
-3.180174 12.200094 14.777020
-2.666087 14.549231 15.065988
6.722525 14.063251 17.489546
7.546061 15.174812 17.373462
8.808494 15.064234 16.801206
9.280698 13.825810 16.311272
8.404052 12.689982 16.389898
-4.869371 13.675323 15.764465
-4.460893 12.390162 15.318668
10.701923 26.812746 15.394027
9.413736 26.964039 15.893199
-3.938526 14.750312 15.634467
-2.299189 13.270282 14.640486
7.119965 12.814032 17.000860
6.232174 11.656723 17.306494
-7.375508 17.709864 23.527144
-5.724208 17.139770 21.846478
6.535768 22.395789 23.799710
5.503327 20.747045 25.243788
6.318289 19.753291 24.711973
-6.901357 15.360191 23.043834
6.800668 23.827971 23.551435
-5.665966 18.463458 21.441495
-6.593394 16.762716 22.870766
7.237004 20.041417 23.672856
5.618339 22.057977 24.804892
7.291803 21.372048 23.171634
8.095240 19.054044 23.103777
-6.509078 19.412775 22.031120
-6.539134 20.697210 21.505156
8.084962 21.647075 22.042244
-4.649872 11.417272 23.290432
-1.142870 24.722085 22.747948
-3.294228 10.909056 23.410399
2.322448 14.194563 23.654003
1.039236 14.573427 24.037959
-0.013171 13.673934 23.998638
3.957933 12.296384 23.309297
0.163398 12.365916 23.498457
1.470104 11.962467 23.101252
-0.918472 11.445866 23.376261
-0.667144 10.133994 22.887232
[...]
POINT_DATA 728
SCALARS my_scalars float
LOOKUP_TABLE default
1.39
1.39
1.39
1.39
1.09
1.09
1.09
1.09
1.09
1.09
1.09
1.09
1.09
1.09
1.09
1.09
1.09
1.09
1.09
1.09
1.09
1.09
1.09
1.09
1.09
1.09
1.09
1.09
1.7
1.7
1.7
1.7
1.7
1.7
1.7
1.7
1.7
1.7
1.7
1.7
1.7
1.7
1.7
1.7
1.7
1.7
1.7
1.7
1.7
1.7
1.7
1.7
1.7
1.7
1.7
1.7
1.7
1.7
1.7
1.7
1.7
1.7
1.7
1.7
1.7
1.7
1.7
1.7
1.7
1.7
1.7
1.7
1.7
1.7
1.7
1.7
1.7
1.52
1.52
1.52
1.52
1.52
1.52
1.52
1.52
1.52
1.52
1.52
1.52
1.52
1.52
1.39
1.39
1.39
1.39
1.09
1.09
1.09
1.09
1.09
1.09
1.09
1.09
1.09
1.09
1.09
1.09
1.09
1.09
1.09
1.09
1.09
1.09
1.09
1.09
1.09
1.09
1.09
1.09
1.7
1.7
1.7
1.7
1.7
1.7
1.7
1.7
1.7
1.7
1.7
1.7
1.7
1.7
1.7
1.7
1.7
1.7
1.7
1.7
1.7
1.7
1.7
1.7
1.7
1.7
1.7
1.7
1.7
1.7
1.7
1.7
1.7
1.7
1.7
1.7
1.7
1.7
1.7
1.7
1.7
1.7
1.7
1.7
1.7
1.7
1.7
1.7
1.7
1.52
1.52
1.52
1.52
1.52
1.52
1.52
1.52
1.52
1.52
1.52
1.52
1.52
1.52
1.39
1.39
1.39
1.39
1.09
1.09
1.09
1.09
1.09
1.09
1.09
1.09
1.09
1.09
1.09
1.09
1.09
1.09
1.09
1.09
1.09
1.09
1.09
1.09
1.09
1.09
1.09
1.09
1.7
1.7
1.7
1.7
1.7
1.7
1.7
1.7
1.7
1.7
1.7
1.7
1.7
1.7
1.7
1.7
1.7
1.7
1.7
1.7
1.7
1.7
1.7
1.7
1.7
1.7
1.7
1.7
1.7
1.7
1.7
1.7
1.7
1.7
1.7
1.7
1.7
1.7
1.7
1.7
1.7
1.7
1.7
1.7
1.7
1.7
1.7
1.7
1.7
1.52
1.52
1.52
1.52
1.52
1.52
1.52
1.52
1.52
1.52
1.52
1.52
1.52
1.52
1.39
1.39
1.39
1.39
1.09
1.09
1.09
1.09
1.09
1.09
1.09
1.09
1.09
1.09
1.09
1.09
1.09
1.09
1.09
1.09
1.09
1.09
1.09
1.09
1.09
1.09
1.09
1.09
1.7
1.7
1.7
1.7
1.7
1.7
1.7
1.7
1.7
1.7
1.7
1.7
1.7
1.7
1.7
1.7
1.7
1.7
1.7
1.7
1.7
1.7
1.7
1.7
1.7
1.7
1.7
1.7
1.7
1.7
1.7
1.7
1.7
1.7
1.7
1.7
1.7
1.7
1.7
1.7
1.7
1.7
1.7
1.7
1.7
1.7
1.7
1.7
1.7
1.52
1.52
1.52
1.52
1.52
1.52
1.52
1.52
1.52
1.52
1.52
1.52
1.52
1.52
1.39
1.39
1.39
1.39
1.09
1.09
1.09
1.09
1.09
1.09
1.09
1.09
1.09
1.09
1.09
1.09
1.09
1.09
1.09
1.09
1.09
1.09
1.09
1.09
1.09
1.09
1.09
1.09
1.7
1.7
1.7
1.7
1.7
1.7
1.7
1.7
1.7
1.7
1.7
1.7
1.7
1.7
1.7
1.7
1.7
1.7
1.7
1.7
1.7
1.7
1.7
1.7
1.7
1.7
1.7
1.7
1.7
1.7
1.7
1.7
1.7
1.7
1.7
1.7
1.7
1.7
1.7
1.7
1.7
1.7
1.7
1.7
1.7
1.7
1.7
1.7
1.7
1.52
1.52
1.52
1.52
1.52
1.52
1.52
1.52
1.52
1.52
1.52
1.52
1.52
1.52
1.39
1.39
1.39
1.39
1.09
1.09
1.09
1.09
1.09
1.09
1.09
1.09
1.09
1.09
1.09
1.09
1.09
1.09
1.09
1.09
1.09
1.09
1.09
1.09
1.09
1.09
1.09
1.09
1.7
1.7
1.7
1.7
1.7
1.7
1.7
1.7
1.7
1.7
1.7
1.7
1.7
1.7
1.7
1.7
1.7
1.7
1.7
1.7
1.7
1.7
1.7
1.7
1.7
1.7
1.7
1.7
1.7
1.7
1.7
1.7
1.7
1.7
1.7
1.7
1.7
1.7
1.7
1.7
1.7
1.7
1.7
1.7
1.7
1.7
1.7
1.7
1.7
1.52
1.52
1.52
1.52
1.52
1.52
1.52
1.52
1.52
1.52
1.52
1.52
1.52
1.52
1.39
1.39
1.39
1.39
1.09
1.09
1.09
1.09
1.09
1.09
1.09
1.09
1.09
1.09
1.09
1.09
1.09
1.09
1.09
1.09
1.09
1.09
1.09
1.09
1.09
1.09
1.09
1.09
1.7
1.7
1.7
1.7
1.7
1.7
1.7
1.7
1.7
1.7
1.7
1.7
1.7
1.7
1.7
1.7
1.7
1.7
1.7
1.7
1.7
1.7
1.7
1.7
1.7
1.7
1.7
1.7
1.7
1.7
1.7
1.7
1.7
1.7
1.7
1.7
1.7
1.7
1.7
1.7
1.7
1.7
1.7
1.7
1.7
1.7
1.7
1.7
1.7
1.52
1.52
1.52
1.52
1.52
1.52
1.52
1.52
1.52
1.52
1.52
1.52
1.52
1.52
1.39
1.39
1.39
1.39
1.09
1.09
1.09
1.09
1.09
1.09
1.09
1.09
1.09
1.09
1.09
1.09
1.09
1.09
1.09
1.09
1.09
1.09
1.09
1.09
1.09
1.09
1.09
1.09
1.7
1.7
1.7
1.7
1.7
1.7
1.7
1.7
1.7
1.7
1.7
1.7
1.7
1.7
1.7
1.7
1.7
1.7
1.7
1.7
1.7
1.7
1.7
1.7
1.7
1.7
1.7
1.7
1.7
1.7
1.7
1.7
1.7
1.7
1.7
1.7
1.7
1.7
1.7
1.7
1.7
1.7
1.7
1.7
1.7
1.7
1.7
1.7
1.7
1.52
1.52
1.52
1.52
1.52
1.52
1.52
1.52
1.52
1.52
1.52
1.52
1.52
1.52
VECTORS vectors float
0.4375 0 0
0.4375 0 0
0.4375 0 0
0.4375 0 0
0.25 0 0
0.25 0 0
0.25 0 0
0.25 0 0
0.25 0 0
0.25 0 0
0.25 0 0
0.25 0 0
0.25 0 0
0.25 0 0
0.25 0 0
0.25 0 0
0.25 0 0
0.25 0 0
0.25 0 0
0.25 0 0
0.25 0 0
0.25 0 0
0.25 0 0
0.25 0 0
0.25 0 0
0.25 0 0
0.25 0 0
0.25 0 0
0.3125 0 0
0.3125 0 0
0.3125 0 0
0.3125 0 0
0.3125 0 0
0.3125 0 0
0.3125 0 0
0.3125 0 0
0.3125 0 0
0.3125 0 0
0.3125 0 0
0.3125 0 0
0.3125 0 0
0.3125 0 0
0.3125 0 0
0.3125 0 0
0.3125 0 0
0.3125 0 0
0.3125 0 0
0.3125 0 0
0.3125 0 0
0.3125 0 0
0.3125 0 0
0.3125 0 0
0.3125 0 0
0.3125 0 0
0.3125 0 0
0.3125 0 0
0.3125 0 0
0.3125 0 0
0.3125 0 0
0.3125 0 0
0.3125 0 0
0.3125 0 0
0.3125 0 0
0.3125 0 0
0.3125 0 0
0.3125 0 0
0.3125 0 0
0.3125 0 0
0.3125 0 0
0.3125 0 0
0.3125 0 0
0.3125 0 0
0.3125 0 0
0.3125 0 0
0.3125 0 0
0.3125 0 0
0.3125 0 0
0.03125 0 0
0.03125 0 0
0.03125 0 0
0.03125 0 0
0.03125 0 0
0.03125 0 0
0.03125 0 0
0.03125 0 0
0.03125 0 0
0.03125 0 0
0.03125 0 0
0.03125 0 0
0.03125 0 0
0.03125 0 0
0.4375 0 0
0.4375 0 0
0.4375 0 0
0.4375 0 0
0.25 0 0
0.25 0 0
0.25 0 0
0.25 0 0
0.25 0 0
0.25 0 0
0.25 0 0
0.25 0 0
0.25 0 0
0.25 0 0
0.25 0 0
0.25 0 0
0.25 0 0
0.25 0 0
0.25 0 0
0.25 0 0
0.25 0 0
0.25 0 0
0.25 0 0
0.25 0 0
0.25 0 0
0.25 0 0
0.25 0 0
0.25 0 0
0.3125 0 0
0.3125 0 0
0.3125 0 0
0.3125 0 0
0.3125 0 0
0.3125 0 0
0.3125 0 0
0.3125 0 0
0.3125 0 0
0.3125 0 0
0.3125 0 0
0.3125 0 0
0.3125 0 0
0.3125 0 0
0.3125 0 0
0.3125 0 0
0.3125 0 0
0.3125 0 0
0.3125 0 0
0.3125 0 0
0.3125 0 0
0.3125 0 0
0.3125 0 0
0.3125 0 0
0.3125 0 0
0.3125 0 0
0.3125 0 0
0.3125 0 0
0.3125 0 0
0.3125 0 0
0.3125 0 0
0.3125 0 0
0.3125 0 0
0.3125 0 0
0.3125 0 0
0.3125 0 0
0.3125 0 0
0.3125 0 0
0.3125 0 0
0.3125 0 0
0.3125 0 0
0.3125 0 0
0.3125 0 0
0.3125 0 0
0.3125 0 0
0.3125 0 0
0.3125 0 0
0.3125 0 0
0.3125 0 0
0.03125 0 0
0.03125 0 0
0.03125 0 0
0.03125 0 0
0.03125 0 0
0.03125 0 0
0.03125 0 0
0.03125 0 0
0.03125 0 0
0.03125 0 0
0.03125 0 0
0.03125 0 0
0.03125 0 0
0.03125 0 0
0.4375 0 0
0.4375 0 0
0.4375 0 0
0.4375 0 0
0.25 0 0
0.25 0 0
0.25 0 0
0.25 0 0
0.25 0 0
0.25 0 0
0.25 0 0
0.25 0 0
0.25 0 0
0.25 0 0
0.25 0 0
0.25 0 0
0.25 0 0
0.25 0 0
0.25 0 0
0.25 0 0
0.25 0 0
0.25 0 0
0.25 0 0
0.25 0 0
0.25 0 0
0.25 0 0
0.25 0 0
0.25 0 0
0.3125 0 0
0.3125 0 0
0.3125 0 0
0.3125 0 0
0.3125 0 0
0.3125 0 0
0.3125 0 0
0.3125 0 0
0.3125 0 0
0.3125 0 0
0.3125 0 0
0.3125 0 0
0.3125 0 0
0.3125 0 0
0.3125 0 0
0.3125 0 0
0.3125 0 0
0.3125 0 0
0.3125 0 0
0.3125 0 0
0.3125 0 0
0.3125 0 0
0.3125 0 0
0.3125 0 0
0.3125 0 0
0.3125 0 0
0.3125 0 0
0.3125 0 0
0.3125 0 0
0.3125 0 0
0.3125 0 0
0.3125 0 0
0.3125 0 0
0.3125 0 0
0.3125 0 0
0.3125 0 0
0.3125 0 0
0.3125 0 0
0.3125 0 0
0.3125 0 0
0.3125 0 0
0.3125 0 0
0.3125 0 0
0.3125 0 0
0.3125 0 0
0.3125 0 0
0.3125 0 0
0.3125 0 0
0.3125 0 0
0.03125 0 0
0.03125 0 0
0.03125 0 0
0.03125 0 0
0.03125 0 0
0.03125 0 0
0.03125 0 0
0.03125 0 0
0.03125 0 0
0.03125 0 0
0.03125 0 0
0.03125 0 0
0.03125 0 0
0.03125 0 0
0.4375 0 0
0.4375 0 0
0.4375 0 0
0.4375 0 0
0.25 0 0
0.25 0 0
0.25 0 0
0.25 0 0
0.25 0 0
0.25 0 0
0.25 0 0
0.25 0 0
0.25 0 0
0.25 0 0
0.25 0 0
0.25 0 0
0.25 0 0
0.25 0 0
0.25 0 0
0.25 0 0
0.25 0 0
0.25 0 0
0.25 0 0
0.25 0 0
0.25 0 0
0.25 0 0
0.25 0 0
0.25 0 0
0.3125 0 0
0.3125 0 0
0.3125 0 0
0.3125 0 0
0.3125 0 0
0.3125 0 0
0.3125 0 0
0.3125 0 0
0.3125 0 0
0.3125 0 0
0.3125 0 0
0.3125 0 0
0.3125 0 0
0.3125 0 0
0.3125 0 0
0.3125 0 0
0.3125 0 0
0.3125 0 0
0.3125 0 0
0.3125 0 0
0.3125 0 0
0.3125 0 0
0.3125 0 0
0.3125 0 0
0.3125 0 0
0.3125 0 0
0.3125 0 0
0.3125 0 0
0.3125 0 0
0.3125 0 0
0.3125 0 0
0.3125 0 0
0.3125 0 0
0.3125 0 0
0.3125 0 0
0.3125 0 0
0.3125 0 0
0.3125 0 0
0.3125 0 0
0.3125 0 0
0.3125 0 0
0.3125 0 0
0.3125 0 0
0.3125 0 0
0.3125 0 0
0.3125 0 0
0.3125 0 0
0.3125 0 0
0.3125 0 0
0.03125 0 0
0.03125 0 0
0.03125 0 0
0.03125 0 0
0.03125 0 0
0.03125 0 0
0.03125 0 0
0.03125 0 0
0.03125 0 0
0.03125 0 0
0.03125 0 0
0.03125 0 0
0.03125 0 0
0.03125 0 0
0.4375 0 0
0.4375 0 0
0.4375 0 0
0.4375 0 0
0.25 0 0
0.25 0 0
0.25 0 0
0.25 0 0
0.25 0 0
0.25 0 0
0.25 0 0
0.25 0 0
0.25 0 0
0.25 0 0
0.25 0 0
0.25 0 0
0.25 0 0
0.25 0 0
0.25 0 0
0.25 0 0
0.25 0 0
0.25 0 0
0.25 0 0
0.25 0 0
0.25 0 0
0.25 0 0
0.25 0 0
0.25 0 0
0.3125 0 0
0.3125 0 0
0.3125 0 0
0.3125 0 0
0.3125 0 0
0.3125 0 0
0.3125 0 0
0.3125 0 0
0.3125 0 0
0.3125 0 0
0.3125 0 0
0.3125 0 0
0.3125 0 0
0.3125 0 0
0.3125 0 0
0.3125 0 0
0.3125 0 0
0.3125 0 0
0.3125 0 0
0.3125 0 0
0.3125 0 0
0.3125 0 0
0.3125 0 0
0.3125 0 0
0.3125 0 0
0.3125 0 0
0.3125 0 0
0.3125 0 0
0.3125 0 0
0.3125 0 0
0.3125 0 0
0.3125 0 0
0.3125 0 0
0.3125 0 0
0.3125 0 0
0.3125 0 0
0.3125 0 0
0.3125 0 0
0.3125 0 0
0.3125 0 0
0.3125 0 0
0.3125 0 0
0.3125 0 0
0.3125 0 0
0.3125 0 0
0.3125 0 0
0.3125 0 0
0.3125 0 0
0.3125 0 0
0.03125 0 0
0.03125 0 0
0.03125 0 0
0.03125 0 0
0.03125 0 0
0.03125 0 0
0.03125 0 0
0.03125 0 0
0.03125 0 0
0.03125 0 0
0.03125 0 0
0.03125 0 0
0.03125 0 0
0.03125 0 0
0.4375 0 0
0.4375 0 0
0.4375 0 0
0.4375 0 0
0.25 0 0
0.25 0 0
0.25 0 0
0.25 0 0
0.25 0 0
0.25 0 0
0.25 0 0
0.25 0 0
0.25 0 0
0.25 0 0
0.25 0 0
0.25 0 0
0.25 0 0
0.25 0 0
0.25 0 0
0.25 0 0
0.25 0 0
0.25 0 0
0.25 0 0
0.25 0 0
0.25 0 0
0.25 0 0
0.25 0 0
0.25 0 0
0.3125 0 0
0.3125 0 0
0.3125 0 0
0.3125 0 0
0.3125 0 0
0.3125 0 0
0.3125 0 0
0.3125 0 0
0.3125 0 0
0.3125 0 0
0.3125 0 0
0.3125 0 0
0.3125 0 0
0.3125 0 0
0.3125 0 0
0.3125 0 0
0.3125 0 0
0.3125 0 0
0.3125 0 0
0.3125 0 0
0.3125 0 0
0.3125 0 0
0.3125 0 0
0.3125 0 0
0.3125 0 0
0.3125 0 0
0.3125 0 0
0.3125 0 0
0.3125 0 0
0.3125 0 0
0.3125 0 0
0.3125 0 0
0.3125 0 0
0.3125 0 0
0.3125 0 0
0.3125 0 0
0.3125 0 0
0.3125 0 0
0.3125 0 0
0.3125 0 0
0.3125 0 0
0.3125 0 0
0.3125 0 0
0.3125 0 0
0.3125 0 0
0.3125 0 0
0.3125 0 0
0.3125 0 0
0.3125 0 0
0.03125 0 0
0.03125 0 0
0.03125 0 0
0.03125 0 0
0.03125 0 0
0.03125 0 0
0.03125 0 0
0.03125 0 0
0.03125 0 0
0.03125 0 0
0.03125 0 0
0.03125 0 0
0.03125 0 0
0.03125 0 0
0.4375 0 0
0.4375 0 0
0.4375 0 0
0.4375 0 0
0.25 0 0
0.25 0 0
0.25 0 0
0.25 0 0
0.25 0 0
0.25 0 0
0.25 0 0
0.25 0 0
0.25 0 0
0.25 0 0
0.25 0 0
0.25 0 0
0.25 0 0
0.25 0 0
0.25 0 0
0.25 0 0
0.25 0 0
0.25 0 0
0.25 0 0
0.25 0 0
0.25 0 0
0.25 0 0
0.25 0 0
0.25 0 0
0.3125 0 0
0.3125 0 0
0.3125 0 0
0.3125 0 0
0.3125 0 0
0.3125 0 0
0.3125 0 0
0.3125 0 0
0.3125 0 0
0.3125 0 0
0.3125 0 0
0.3125 0 0
0.3125 0 0
0.3125 0 0
0.3125 0 0
0.3125 0 0
0.3125 0 0
0.3125 0 0
0.3125 0 0
0.3125 0 0
0.3125 0 0
0.3125 0 0
0.3125 0 0
0.3125 0 0
0.3125 0 0
0.3125 0 0
0.3125 0 0
0.3125 0 0
0.3125 0 0
0.3125 0 0
0.3125 0 0
0.3125 0 0
0.3125 0 0
0.3125 0 0
0.3125 0 0
0.3125 0 0
0.3125 0 0
0.3125 0 0
0.3125 0 0
0.3125 0 0
0.3125 0 0
0.3125 0 0
0.3125 0 0
0.3125 0 0
0.3125 0 0
0.3125 0 0
0.3125 0 0
0.3125 0 0
0.3125 0 0
0.03125 0 0
0.03125 0 0
0.03125 0 0
0.03125 0 0
0.03125 0 0
0.03125 0 0
0.03125 0 0
0.03125 0 0
0.03125 0 0
0.03125 0 0
0.03125 0 0
0.03125 0 0
0.03125 0 0
0.03125 0 0
0.4375 0 0
0.4375 0 0
0.4375 0 0
0.4375 0 0
0.25 0 0
0.25 0 0
0.25 0 0
0.25 0 0
0.25 0 0
0.25 0 0
0.25 0 0
0.25 0 0
0.25 0 0
0.25 0 0
0.25 0 0
0.25 0 0
0.25 0 0
0.25 0 0
0.25 0 0
0.25 0 0
0.25 0 0
0.25 0 0
0.25 0 0
0.25 0 0
0.25 0 0
0.25 0 0
0.25 0 0
0.25 0 0
0.3125 0 0
0.3125 0 0
0.3125 0 0
0.3125 0 0
0.3125 0 0
0.3125 0 0
0.3125 0 0
0.3125 0 0
0.3125 0 0
0.3125 0 0
0.3125 0 0
0.3125 0 0
0.3125 0 0
0.3125 0 0
0.3125 0 0
0.3125 0 0
0.3125 0 0
0.3125 0 0
0.3125 0 0
0.3125 0 0
0.3125 0 0
0.3125 0 0
0.3125 0 0
0.3125 0 0
0.3125 0 0
0.3125 0 0
0.3125 0 0
0.3125 0 0
0.3125 0 0
0.3125 0 0
0.3125 0 0
0.3125 0 0
0.3125 0 0
0.3125 0 0
0.3125 0 0
0.3125 0 0
0.3125 0 0
0.3125 0 0
0.3125 0 0
0.3125 0 0
0.3125 0 0
0.3125 0 0
0.3125 0 0
0.3125 0 0
0.3125 0 0
0.3125 0 0
0.3125 0 0
0.3125 0 0
0.3125 0 0
0.03125 0 0
0.03125 0 0
0.03125 0 0
0.03125 0 0
0.03125 0 0
0.03125 0 0
0.03125 0 0
0.03125 0 0
0.03125 0 0
0.03125 0 0
0.03125 0 0
0.03125 0 0
0.03125 0 0
0.03125 0 0
