Compiler and run-time data
===========================================================================
RASPA 2.0.50
Compiled as a 64-bits application
Compiler: gcc 11.4.0
Compile Date = Jan 20 2026, Compile Time = 16:15:37

Thu Feb  5 21:35:10 2026
Simulation started on Thursday, February 05.
The start time was 09:35 PM.

Hostname:    mof-sample
OS type:     Linux on x86_64
OS release:  6.8.0-1045-gcp
OS version:  #48~22.04.1-Ubuntu SMP Tue Nov 25 13:07:56 UTC 2025

Simulation
===========================================================================
Dimensions: 3
Random number seed: 1770327310
RASPA directory set to: /home/sibivarshan_m7/gcmc_tools/raspa_install
String appended to output-files: 
Number of cycles: 10000
Number of initializing cycles: 0
Number of equilibration cycles: 10000
Print every: 1000
Triclinic boundary condition applied
Timestep: 0.000500
	Degrees of freedom:                        0
	Translational Degrees of freedom:          0
	Rotational Degrees of freedom:             0
	Degrees of freedom Framework:              0


Mutual consistent basic set of units:
======================================
Unit of temperature: Kelvin
Unit of length:      1e-10 [m]
Unit of time:        1e-12 [s]
Unit of mass:        1.66054e-27 [kg]
Unit of charge:      1.60218e-19 [C/particle]

Derived units and their conversion factors:
===========================================
Unit of energy:              1.66054e-23 [J]
Unit of force:               1.66054e-13 [N]
Unit of pressure:            1.66054e+07 [Pa]
Unit of velocity:            100 [m/s]
Unit of acceleration:        1e-08 [m^2/s]
Unit of diffusion:           1e-08 [m^2/s]
Unit of dipole moment:       1.60218e-29 [C.m]
Unit of electric potential:  0.000103643 [V]
Unit of electric field:      1.03643e+06 [V]
Unit of polarizability:      1.54587e-35 [-]
Unit of Coulomb potential:   167101.0800066561  [K]
Unit of dielectric constant: 0.0000154587       [s^2 C^2/(kg m^3)]
Unit of wave vectors:        5.3088374589       [cm^1]
Boltzmann constant:          0.8314464919       [-]

Internal conversion factors:
===========================================
Energy to Kelvin:                                    1.2027242847
FH correction factor                                 2.0211930949
Heat capacity conversion factor:                    10.0000088723
From Debye to internal units:                        4.8032067991
Isothermal compressibility conversion factor:        0.0000000602

Energy conversion factors:
===========================================
From mdyne/A to kcal/mol/A^2:           143.933
From mdyne/A to kj/mol/A^2:             602.214
From mdyne/A to K/A^2:                  72429.7
From mdyne A/rad^2 to kcal/mol/deg^2:   0.0438444


Properties computed
===========================================================================
Movies: no
Radial Distribution Function: no
Number of molecules GCMC histogram: no
Histogram of the molecule positions: no
Free energy profiles: no
Pore Size Distribution Function: no
End-to-end distance: no
Histogram of the energy of the system: no
Compute thermodynamic factors: no
Framework spacing histograms: no
Residence times histograms: no
Distance histograms: no
Bend Angle histograms: no
Dihedral angle histograms: no
Angle between planes histograms: no
Molecule properties: no
Infra-red spectra: no
Mean-squared displacement using modified order-N algorithm: no
Velocity-autocorrelation function modified order-N algorithm: no
Rotational velocity-autocorrelation function modified order-N algorithm: no
Molecular orientation-autocorrelation function modified order-N algorithm: no
Bond orientation-autocorrelation function modified order-N algorithm: no
Mean-squared displacement (conventional algorithm): no
Velocity-autocorrelation function (conventional algorithm): no
3D density grid for adsorbates: no
Compute cation an/or adsorption sites: no
dcTST snapshots: no
Compute pressure and stress: no


VTK
===========================================================================
VTK fractional-range position framework atoms: [-0.001000,1.001000] [-0.001000,1.001000] [-0.001000,1.001000]
VTK fractional-range position framework bonds: [-0.151000,1.151000] [-0.151000,1.151000] [-0.151000,1.151000]
VTK fractional-range com-position adsorbate molecules: [-0.101000,1.101000] [-0.101000,1.101000] [-0.101000,1.101000]
VTK fractional-range com-position cation molecules: [-0.101000,1.101000] [-0.101000,1.101000] [-0.101000,1.101000]
	3D free energy grid made for the full simulation-cell


Thermo/Baro-stat NHC parameters
===========================================================================
External temperature: 298 [K]
Beta: 0.00403598 [energy unit]
External Pressure: 101325 [Pa]


Thermostat chain-length: 3
Timescale parameter for thermostat: 0.150000 [ps]
Barostat chain-length:   3
Timescale parameter for barostat:   0.150000 [ps]

Number of Yoshida-Suzuki decomposition steps: 5
Number of respa steps: 5


Method and settings for electrostatics
===============================================================================
Dielectric constant of the medium : 1.000000
Charge from charge-equilibration: no
Ewald summation is used (exact solution of a periodic system)
Relative precision                : 1e-06
Alpha convergence parameter       : 0.265058
kvec (x,y,z)                      : 9 10 9


CFC-RXMC parameters
===========================================================================
Number of reactions: 0


Rattle parameters
===========================================================================
Distance constraint type: r^2-r^2_0
Bend angle constraint type: theta-theta_0
Dihedral angle constraint type: phi-phi_0
Inversion-bend angle constraint type: chi-chi_0
Out-of-plane distance constraint type: r-r_0


Spectra parameters
===========================================================================
Compute normal modes: no


Minimization parameters
===========================================================================
Generalized coordinates are: Cartesian center-of-mass, elements of the orientational matrix p1,p2,p3 and strain
Potential derivatives are evaluated: analytically
Translation of the system is removed from the generalized Hessian: no
Rotation of the system is removed from the generalized Hessian: no
Maximum step-length: 0.3
Convergence factor: 1
Maximum number of minimization steps: 10000
Use gradients in the line-minimizations: yes
RMS gradient tolerance: 1e-06
Maximum gradient tolerance: 1e-06

Distance constraints: 0
Angle constraints: 0
Dihedral constraints: 0

Improper dihedral constraints: 0

Inversion-bend constraints: 0

Out-of-plane constraints: 0

Harmonic distance constraints: 0
Harmonic angle constraints: 0
Harmonic dihedral constraints: 0

Dihedral mid-point measurements: 0

All framework atoms are fixed

Fixed adsorbate atoms:  
Fixed adsorbate groups (center-of-mass):  
Fixed adsorbate groups (orientation):  

Fixed cation atoms:  
Fixed cation groups (center-of-mass):  
Fixed cation groups (orientation):  


dcTST parameters
===========================================================================
Free energy profiles computed: no
Free energy profiles written every 5000 cycles
Free energy mapping: mapped to a,b,c-coordinates
BarrierPosition:       0.0000000000       0.0000000000       0.0000000000
BarrierNormal:         0.0000000000       0.0000000000       0.0000000000
Start with a molecule on top of the barrier: no
Maximum distance to barrier (e.g. distance to minumum free energy):       0.0000000000 [A]
Maximum trajectory time:      10.0000000000 [ps]
Each configuration is used with 5 different initial velocities


Cbmc parameters
===========================================================================
Biasing method: using only the VDW part
Number of trial positions:                                       10
Number of trial positions (reinsertion):                         10
Number of trial positions (partial reinsertion):                 10
Number of trial positions (identity-change):                     10
Number of trial positions (Gibbs particle transfer):             10
Number of trial positions (insertion/deletion):                  10
Number of trial positions (Widom insertion):                     10
Number of trial positions coupled Torsion-selection:             100
Number of trial positions first bead:                            10
Number of trial positions first bead (reinsertion):              10
Number of trial positions first bead (partial reinsertion):      10
Number of trial positions first bead (identity-change):          10
Number of trial positions first bead (Gibbs particle transfer):  10
Number of trial positions first bead (insertion/deletion):       10
Number of trial positions first bead (Widom insertion):          10
Number of trial moves per open bead:                             150
Target acceptance ratio small-mc scheme:                         0.400000
Energy overlap criteria:                                         1e+07
Minimal Rosenbluth factor:                                       1e-150


Pseudo atoms: 68
===========================================================================
Pseudo Atom[   0] Name UNIT     Oxidation:          Element: H    pdb-name: H    Scat. Types:   1   1 Mass=1.000000000  B-factor:0.000   
                 Charge=1.000000000          Polarization=0.000000000  [A^3] (considered a charged atom and no polarization)  Interactions: yes
                 Anisotropic factor:    0.000 [-] (Absolute), Radius:    1.000 [A], Framework-atom:  no
Pseudo Atom[   1] Name He       Oxidation: +0       Element: He   pdb-name: He   Scat. Types:   3   2 Mass=4.002602000  B-factor:1.000   
                 Charge=0.000000000          Polarization=0.000000000  [A^3] (considered a chargeless atom and no polarization)  Interactions: yes
                 Anisotropic factor:    0.000 [-] (Relative), Radius:    1.000 [A], Framework-atom:  no
Pseudo Atom[   2] Name Ar       Oxidation: +0       Element: Ar   pdb-name: Ar   Scat. Types:  19  18 Mass=39.948000000 B-factor:1.000   
                 Charge=0.000000000          Polarization=0.000000000  [A^3] (considered a chargeless atom and no polarization)  Interactions: yes
                 Anisotropic factor:    0.000 [-] (Relative), Radius:    0.700 [A], Framework-atom:  no
Pseudo Atom[   3] Name CH4      Oxidation: +0       Element: C    pdb-name: C    Scat. Types:   7   6 Mass=16.042460000 B-factor:1.000   
                 Charge=0.000000000          Polarization=0.000000000  [A^3] (considered a chargeless atom and no polarization)  Interactions: yes
                 Anisotropic factor:    0.000 [-] (Relative), Radius:    1.000 [A], Framework-atom:  no
Pseudo Atom[   4] Name C_co2    Oxidation: +0       Element: C    pdb-name: C    Scat. Types:   7   6 Mass=12.000000000 B-factor:1.000   
                 Charge=0.651200000          Polarization=0.000000000  [A^3] (considered a charged atom and no polarization)  Interactions: yes
                 Anisotropic factor:    0.000 [-] (Relative), Radius:    0.720 [A], Framework-atom:  no
Pseudo Atom[   5] Name O_co2    Oxidation: +0       Element: O    pdb-name: O    Scat. Types:   9   8 Mass=15.999400000 B-factor:1.000   
                 Charge=-0.325600000         Polarization=0.000000000  [A^3] (considered a charged atom and no polarization)  Interactions: yes
                 Anisotropic factor:    0.000 [-] (Relative), Radius:    0.680 [A], Framework-atom:  no
Pseudo Atom[   6] Name N_n2     Oxidation: +0       Element: N    pdb-name: N    Scat. Types:   8   7 Mass=14.006740000 B-factor:1.000   
                 Charge=-0.405000000         Polarization=0.000000000  [A^3] (considered a charged atom and no polarization)  Interactions: yes
                 Anisotropic factor:    0.000 [-] (Relative), Radius:    0.700 [A], Framework-atom:  no
Pseudo Atom[   7] Name N_com    Oxidation: +0       Element: -    pdb-name: N    Scat. Types:   0   7 Mass=0.000000000  B-factor:1.000   
                 Charge=0.810000000          Polarization=0.000000000  [A^3] (considered a charged atom and no polarization)  Interactions: yes
                 Anisotropic factor:    0.000 [-] (Relative), Radius:    0.700 [A], Framework-atom:  no
Pseudo Atom[   8] Name N_nh3    Oxidation: +0       Element: N    pdb-name: N    Scat. Types:   8   7 Mass=14.006740000 B-factor:1.000   
                 Charge=-1.020000000         Polarization=0.000000000  [A^3] (considered a charged atom and no polarization)  Interactions: yes
                 Anisotropic factor:    0.000 [-] (Relative), Radius:    1.550 [A], Framework-atom:  no
Pseudo Atom[   9] Name H_nh3    Oxidation: +0       Element: H    pdb-name: H    Scat. Types:   1   1 Mass=1.007940000  B-factor:1.000   
                 Charge=0.340000000          Polarization=0.000000000  [A^3] (considered a charged atom and no polarization)  Interactions: yes
                 Anisotropic factor:    0.000 [-] (Relative), Radius:    0.500 [A], Framework-atom:  no
Pseudo Atom[  10] Name C0       Oxidation:          Element: C    pdb-name: C    Scat. Types:   7   6 Mass=12.010735897 B-factor:0.000   
                 Charge=0.215212000    (av)  Polarization=1.760000000  [A^3] (considered a charged atom and no polarization)  Interactions: yes
                 Anisotropic factor:    0.000 [-] (Absolute), Radius:    0.750 [A], Framework-atom: yes (charge from structure file)
Pseudo Atom[  11] Name C1       Oxidation:          Element: C    pdb-name: C    Scat. Types:   7   6 Mass=12.010735897 B-factor:0.000   
                 Charge=0.291835000    (av)  Polarization=1.760000000  [A^3] (considered a charged atom and no polarization)  Interactions: yes
                 Anisotropic factor:    0.000 [-] (Absolute), Radius:    0.750 [A], Framework-atom: yes (charge from structure file)
Pseudo Atom[  12] Name C2       Oxidation:          Element: C    pdb-name: C    Scat. Types:   7   6 Mass=12.010735897 B-factor:0.000   
                 Charge=0.104061000    (av)  Polarization=1.760000000  [A^3] (considered a charged atom and no polarization)  Interactions: yes
                 Anisotropic factor:    0.000 [-] (Absolute), Radius:    0.750 [A], Framework-atom: yes (charge from structure file)
Pseudo Atom[  13] Name C3       Oxidation:          Element: C    pdb-name: C    Scat. Types:   7   6 Mass=12.010735897 B-factor:0.000   
                 Charge=-0.016880000   (av)  Polarization=1.760000000  [A^3] (considered a charged atom and no polarization)  Interactions: yes
                 Anisotropic factor:    0.000 [-] (Absolute), Radius:    0.750 [A], Framework-atom: yes (charge from structure file)
Pseudo Atom[  14] Name C4       Oxidation:          Element: C    pdb-name: C    Scat. Types:   7   6 Mass=12.010735897 B-factor:0.000   
                 Charge=0.411127000    (av)  Polarization=1.760000000  [A^3] (considered a charged atom and no polarization)  Interactions: yes
                 Anisotropic factor:    0.000 [-] (Absolute), Radius:    0.750 [A], Framework-atom: yes (charge from structure file)
Pseudo Atom[  15] Name C5       Oxidation:          Element: C    pdb-name: C    Scat. Types:   7   6 Mass=12.010735897 B-factor:0.000   
                 Charge=-0.216925000   (av)  Polarization=1.760000000  [A^3] (considered a charged atom and no polarization)  Interactions: yes
                 Anisotropic factor:    0.000 [-] (Absolute), Radius:    0.750 [A], Framework-atom: yes (charge from structure file)
Pseudo Atom[  16] Name C6       Oxidation:          Element: C    pdb-name: C    Scat. Types:   7   6 Mass=12.010735897 B-factor:0.000   
                 Charge=0.442948000    (av)  Polarization=1.760000000  [A^3] (considered a charged atom and no polarization)  Interactions: yes
                 Anisotropic factor:    0.000 [-] (Absolute), Radius:    0.750 [A], Framework-atom: yes (charge from structure file)
Pseudo Atom[  17] Name C7       Oxidation:          Element: C    pdb-name: C    Scat. Types:   7   6 Mass=12.010735897 B-factor:0.000   
                 Charge=-0.229760000   (av)  Polarization=1.760000000  [A^3] (considered a charged atom and no polarization)  Interactions: yes
                 Anisotropic factor:    0.000 [-] (Absolute), Radius:    0.750 [A], Framework-atom: yes (charge from structure file)
Pseudo Atom[  18] Name C8       Oxidation:          Element: C    pdb-name: C    Scat. Types:   7   6 Mass=12.010735897 B-factor:0.000   
                 Charge=0.151877000    (av)  Polarization=1.760000000  [A^3] (considered a charged atom and no polarization)  Interactions: yes
                 Anisotropic factor:    0.000 [-] (Absolute), Radius:    0.750 [A], Framework-atom: yes (charge from structure file)
Pseudo Atom[  19] Name C9       Oxidation:          Element: C    pdb-name: C    Scat. Types:   7   6 Mass=12.010735897 B-factor:0.000   
                 Charge=-0.150908000   (av)  Polarization=1.760000000  [A^3] (considered a charged atom and no polarization)  Interactions: yes
                 Anisotropic factor:    0.000 [-] (Absolute), Radius:    0.750 [A], Framework-atom: yes (charge from structure file)
Pseudo Atom[  20] Name C10      Oxidation:          Element: C    pdb-name: C    Scat. Types:   7   6 Mass=12.010735897 B-factor:0.000   
                 Charge=0.117767000    (av)  Polarization=1.760000000  [A^3] (considered a charged atom and no polarization)  Interactions: yes
                 Anisotropic factor:    0.000 [-] (Absolute), Radius:    0.750 [A], Framework-atom: yes (charge from structure file)
Pseudo Atom[  21] Name C11      Oxidation:          Element: C    pdb-name: C    Scat. Types:   7   6 Mass=12.010735897 B-factor:0.000   
                 Charge=0.004611000    (av)  Polarization=1.760000000  [A^3] (considered a charged atom and no polarization)  Interactions: yes
                 Anisotropic factor:    0.000 [-] (Absolute), Radius:    0.750 [A], Framework-atom: yes (charge from structure file)
Pseudo Atom[  22] Name C12      Oxidation:          Element: C    pdb-name: C    Scat. Types:   7   6 Mass=12.010735897 B-factor:0.000   
                 Charge=-0.092336000   (av)  Polarization=1.760000000  [A^3] (considered a charged atom and no polarization)  Interactions: yes
                 Anisotropic factor:    0.000 [-] (Absolute), Radius:    0.750 [A], Framework-atom: yes (charge from structure file)
Pseudo Atom[  23] Name C13      Oxidation:          Element: C    pdb-name: C    Scat. Types:   7   6 Mass=12.010735897 B-factor:0.000   
                 Charge=0.383645000    (av)  Polarization=1.760000000  [A^3] (considered a charged atom and no polarization)  Interactions: yes
                 Anisotropic factor:    0.000 [-] (Absolute), Radius:    0.750 [A], Framework-atom: yes (charge from structure file)
Pseudo Atom[  24] Name C14      Oxidation:          Element: C    pdb-name: C    Scat. Types:   7   6 Mass=12.010735897 B-factor:0.000   
                 Charge=0.101080000    (av)  Polarization=1.760000000  [A^3] (considered a charged atom and no polarization)  Interactions: yes
                 Anisotropic factor:    0.000 [-] (Absolute), Radius:    0.750 [A], Framework-atom: yes (charge from structure file)
Pseudo Atom[  25] Name C15      Oxidation:          Element: C    pdb-name: C    Scat. Types:   7   6 Mass=12.010735897 B-factor:0.000   
                 Charge=0.152272000    (av)  Polarization=1.760000000  [A^3] (considered a charged atom and no polarization)  Interactions: yes
                 Anisotropic factor:    0.000 [-] (Absolute), Radius:    0.750 [A], Framework-atom: yes (charge from structure file)
Pseudo Atom[  26] Name C16      Oxidation:          Element: C    pdb-name: C    Scat. Types:   7   6 Mass=12.010735897 B-factor:0.000   
                 Charge=-0.110616000   (av)  Polarization=1.760000000  [A^3] (considered a charged atom and no polarization)  Interactions: yes
                 Anisotropic factor:    0.000 [-] (Absolute), Radius:    0.750 [A], Framework-atom: yes (charge from structure file)
Pseudo Atom[  27] Name C17      Oxidation:          Element: C    pdb-name: C    Scat. Types:   7   6 Mass=12.010735897 B-factor:0.000   
                 Charge=0.470254000    (av)  Polarization=1.760000000  [A^3] (considered a charged atom and no polarization)  Interactions: yes
                 Anisotropic factor:    0.000 [-] (Absolute), Radius:    0.750 [A], Framework-atom: yes (charge from structure file)
Pseudo Atom[  28] Name C18      Oxidation:          Element: C    pdb-name: C    Scat. Types:   7   6 Mass=12.010735897 B-factor:0.000   
                 Charge=0.351548000    (av)  Polarization=1.760000000  [A^3] (considered a charged atom and no polarization)  Interactions: yes
                 Anisotropic factor:    0.000 [-] (Absolute), Radius:    0.750 [A], Framework-atom: yes (charge from structure file)
Pseudo Atom[  29] Name C19      Oxidation:          Element: C    pdb-name: C    Scat. Types:   7   6 Mass=12.010735897 B-factor:0.000   
                 Charge=0.420785000    (av)  Polarization=1.760000000  [A^3] (considered a charged atom and no polarization)  Interactions: yes
                 Anisotropic factor:    0.000 [-] (Absolute), Radius:    0.750 [A], Framework-atom: yes (charge from structure file)
Pseudo Atom[  30] Name C20      Oxidation:          Element: C    pdb-name: C    Scat. Types:   7   6 Mass=12.010735897 B-factor:0.000   
                 Charge=-0.219518000   (av)  Polarization=1.760000000  [A^3] (considered a charged atom and no polarization)  Interactions: yes
                 Anisotropic factor:    0.000 [-] (Absolute), Radius:    0.750 [A], Framework-atom: yes (charge from structure file)
Pseudo Atom[  31] Name C21      Oxidation:          Element: C    pdb-name: C    Scat. Types:   7   6 Mass=12.010735897 B-factor:0.000   
                 Charge=0.441840000    (av)  Polarization=1.760000000  [A^3] (considered a charged atom and no polarization)  Interactions: yes
                 Anisotropic factor:    0.000 [-] (Absolute), Radius:    0.750 [A], Framework-atom: yes (charge from structure file)
Pseudo Atom[  32] Name C22      Oxidation:          Element: C    pdb-name: C    Scat. Types:   7   6 Mass=12.010735897 B-factor:0.000   
                 Charge=-0.240742000   (av)  Polarization=1.760000000  [A^3] (considered a charged atom and no polarization)  Interactions: yes
                 Anisotropic factor:    0.000 [-] (Absolute), Radius:    0.750 [A], Framework-atom: yes (charge from structure file)
Pseudo Atom[  33] Name C23      Oxidation:          Element: C    pdb-name: C    Scat. Types:   7   6 Mass=12.010735897 B-factor:0.000   
                 Charge=0.119395000    (av)  Polarization=1.760000000  [A^3] (considered a charged atom and no polarization)  Interactions: yes
                 Anisotropic factor:    0.000 [-] (Absolute), Radius:    0.750 [A], Framework-atom: yes (charge from structure file)
Pseudo Atom[  34] Name C24      Oxidation:          Element: C    pdb-name: C    Scat. Types:   7   6 Mass=12.010735897 B-factor:0.000   
                 Charge=-0.134049000   (av)  Polarization=1.760000000  [A^3] (considered a charged atom and no polarization)  Interactions: yes
                 Anisotropic factor:    0.000 [-] (Absolute), Radius:    0.750 [A], Framework-atom: yes (charge from structure file)
Pseudo Atom[  35] Name C25      Oxidation:          Element: C    pdb-name: C    Scat. Types:   7   6 Mass=12.010735897 B-factor:0.000   
                 Charge=0.119189000    (av)  Polarization=1.760000000  [A^3] (considered a charged atom and no polarization)  Interactions: yes
                 Anisotropic factor:    0.000 [-] (Absolute), Radius:    0.750 [A], Framework-atom: yes (charge from structure file)
Pseudo Atom[  36] Name C26      Oxidation:          Element: C    pdb-name: C    Scat. Types:   7   6 Mass=12.010735897 B-factor:0.000   
                 Charge=-0.161595000   (av)  Polarization=1.760000000  [A^3] (considered a charged atom and no polarization)  Interactions: yes
                 Anisotropic factor:    0.000 [-] (Absolute), Radius:    0.750 [A], Framework-atom: yes (charge from structure file)
Pseudo Atom[  37] Name C27      Oxidation:          Element: C    pdb-name: C    Scat. Types:   7   6 Mass=12.010735897 B-factor:0.000   
                 Charge=0.190946000    (av)  Polarization=1.760000000  [A^3] (considered a charged atom and no polarization)  Interactions: yes
                 Anisotropic factor:    0.000 [-] (Absolute), Radius:    0.750 [A], Framework-atom: yes (charge from structure file)
Pseudo Atom[  38] Name C28      Oxidation:          Element: C    pdb-name: C    Scat. Types:   7   6 Mass=12.010735897 B-factor:0.000   
                 Charge=-0.106487000   (av)  Polarization=1.760000000  [A^3] (considered a charged atom and no polarization)  Interactions: yes
                 Anisotropic factor:    0.000 [-] (Absolute), Radius:    0.750 [A], Framework-atom: yes (charge from structure file)
Pseudo Atom[  39] Name C29      Oxidation:          Element: C    pdb-name: C    Scat. Types:   7   6 Mass=12.010735897 B-factor:0.000   
                 Charge=0.193800000    (av)  Polarization=1.760000000  [A^3] (considered a charged atom and no polarization)  Interactions: yes
                 Anisotropic factor:    0.000 [-] (Absolute), Radius:    0.750 [A], Framework-atom: yes (charge from structure file)
Pseudo Atom[  40] Name F30      Oxidation:          Element: F    pdb-name: F    Scat. Types:  10   9 Mass=18.998403220 B-factor:0.000   
                 Charge=-0.380786000   (av)  Polarization=0.557000000  [A^3] (considered a charged atom and no polarization)  Interactions: yes
                 Anisotropic factor:    0.000 [-] (Absolute), Radius:    0.600 [A], Framework-atom: yes (charge from structure file)
Pseudo Atom[  41] Name F31      Oxidation:          Element: F    pdb-name: F    Scat. Types:  10   9 Mass=18.998403220 B-factor:0.000   
                 Charge=-0.423568000   (av)  Polarization=0.557000000  [A^3] (considered a charged atom and no polarization)  Interactions: yes
                 Anisotropic factor:    0.000 [-] (Absolute), Radius:    0.600 [A], Framework-atom: yes (charge from structure file)
Pseudo Atom[  42] Name F32      Oxidation:          Element: F    pdb-name: F    Scat. Types:  10   9 Mass=18.998403220 B-factor:0.000   
                 Charge=-0.425478000   (av)  Polarization=0.557000000  [A^3] (considered a charged atom and no polarization)  Interactions: yes
                 Anisotropic factor:    0.000 [-] (Absolute), Radius:    0.600 [A], Framework-atom: yes (charge from structure file)
Pseudo Atom[  43] Name F33      Oxidation:          Element: F    pdb-name: F    Scat. Types:  10   9 Mass=18.998403220 B-factor:0.000   
                 Charge=-0.440588000   (av)  Polarization=0.557000000  [A^3] (considered a charged atom and no polarization)  Interactions: yes
                 Anisotropic factor:    0.000 [-] (Absolute), Radius:    0.600 [A], Framework-atom: yes (charge from structure file)
Pseudo Atom[  44] Name F34      Oxidation:          Element: F    pdb-name: F    Scat. Types:  10   9 Mass=18.998403220 B-factor:0.000   
                 Charge=-0.338160000   (av)  Polarization=0.557000000  [A^3] (considered a charged atom and no polarization)  Interactions: yes
                 Anisotropic factor:    0.000 [-] (Absolute), Radius:    0.600 [A], Framework-atom: yes (charge from structure file)
Pseudo Atom[  45] Name F35      Oxidation:          Element: F    pdb-name: F    Scat. Types:  10   9 Mass=18.998403220 B-factor:0.000   
                 Charge=-0.448383000   (av)  Polarization=0.557000000  [A^3] (considered a charged atom and no polarization)  Interactions: yes
                 Anisotropic factor:    0.000 [-] (Absolute), Radius:    0.600 [A], Framework-atom: yes (charge from structure file)
Pseudo Atom[  46] Name H36      Oxidation:          Element: H    pdb-name: H    Scat. Types:   1   1 Mass=1.007940754  B-factor:0.000   
                 Charge=0.051834000    (av)  Polarization=0.666793000  [A^3] (considered a charged atom and no polarization)  Interactions: yes
                 Anisotropic factor:    0.000 [-] (Absolute), Radius:    0.320 [A], Framework-atom: yes (charge from structure file)
Pseudo Atom[  47] Name H37      Oxidation:          Element: H    pdb-name: H    Scat. Types:   1   1 Mass=1.007940754  B-factor:0.000   
                 Charge=0.035905000    (av)  Polarization=0.666793000  [A^3] (considered a charged atom and no polarization)  Interactions: yes
                 Anisotropic factor:    0.000 [-] (Absolute), Radius:    0.320 [A], Framework-atom: yes (charge from structure file)
Pseudo Atom[  48] Name H38      Oxidation:          Element: H    pdb-name: H    Scat. Types:   1   1 Mass=1.007940754  B-factor:0.000   
                 Charge=0.064945000    (av)  Polarization=0.666793000  [A^3] (considered a charged atom and no polarization)  Interactions: yes
                 Anisotropic factor:    0.000 [-] (Absolute), Radius:    0.320 [A], Framework-atom: yes (charge from structure file)
Pseudo Atom[  49] Name H39      Oxidation:          Element: H    pdb-name: H    Scat. Types:   1   1 Mass=1.007940754  B-factor:0.000   
                 Charge=0.092876000    (av)  Polarization=0.666793000  [A^3] (considered a charged atom and no polarization)  Interactions: yes
                 Anisotropic factor:    0.000 [-] (Absolute), Radius:    0.320 [A], Framework-atom: yes (charge from structure file)
Pseudo Atom[  50] Name H40      Oxidation:          Element: H    pdb-name: H    Scat. Types:   1   1 Mass=1.007940754  B-factor:0.000   
                 Charge=0.134159000    (av)  Polarization=0.666793000  [A^3] (considered a charged atom and no polarization)  Interactions: yes
                 Anisotropic factor:    0.000 [-] (Absolute), Radius:    0.320 [A], Framework-atom: yes (charge from structure file)
Pseudo Atom[  51] Name H41      Oxidation:          Element: H    pdb-name: H    Scat. Types:   1   1 Mass=1.007940754  B-factor:0.000   
                 Charge=0.032268000    (av)  Polarization=0.666793000  [A^3] (considered a charged atom and no polarization)  Interactions: yes
                 Anisotropic factor:    0.000 [-] (Absolute), Radius:    0.320 [A], Framework-atom: yes (charge from structure file)
Pseudo Atom[  52] Name H42      Oxidation:          Element: H    pdb-name: H    Scat. Types:   1   1 Mass=1.007940754  B-factor:0.000   
                 Charge=0.089993000    (av)  Polarization=0.666793000  [A^3] (considered a charged atom and no polarization)  Interactions: yes
                 Anisotropic factor:    0.000 [-] (Absolute), Radius:    0.320 [A], Framework-atom: yes (charge from structure file)
Pseudo Atom[  53] Name H43      Oxidation:          Element: H    pdb-name: H    Scat. Types:   1   1 Mass=1.007940754  B-factor:0.000   
                 Charge=0.144458000    (av)  Polarization=0.666793000  [A^3] (considered a charged atom and no polarization)  Interactions: yes
                 Anisotropic factor:    0.000 [-] (Absolute), Radius:    0.320 [A], Framework-atom: yes (charge from structure file)
Pseudo Atom[  54] Name I44      Oxidation:          Element: I    pdb-name: I    Scat. Types:  54  49 Mass=126.904473000 B-factor:0.000   
                 Charge=0.052956000    (av)  Polarization=5.350000000  [A^3] (considered a charged atom and no polarization)  Interactions: yes
                 Anisotropic factor:    0.000 [-] (Absolute), Radius:    1.360 [A], Framework-atom: yes (charge from structure file)
Pseudo Atom[  55] Name I45      Oxidation:          Element: I    pdb-name: I    Scat. Types:  54  49 Mass=126.904473000 B-factor:0.000   
                 Charge=0.021092000    (av)  Polarization=5.350000000  [A^3] (considered a charged atom and no polarization)  Interactions: yes
                 Anisotropic factor:    0.000 [-] (Absolute), Radius:    1.360 [A], Framework-atom: yes (charge from structure file)
Pseudo Atom[  56] Name N46      Oxidation:          Element: N    pdb-name: N    Scat. Types:   8   7 Mass=14.006703212 B-factor:0.000   
                 Charge=-0.252892000   (av)  Polarization=1.100000000  [A^3] (considered a charged atom and no polarization)  Interactions: yes
                 Anisotropic factor:    0.000 [-] (Absolute), Radius:    0.710 [A], Framework-atom: yes (charge from structure file)
Pseudo Atom[  57] Name N47      Oxidation:          Element: N    pdb-name: N    Scat. Types:   8   7 Mass=14.006703212 B-factor:0.000   
                 Charge=-0.066782000   (av)  Polarization=1.100000000  [A^3] (considered a charged atom and no polarization)  Interactions: yes
                 Anisotropic factor:    0.000 [-] (Absolute), Radius:    0.710 [A], Framework-atom: yes (charge from structure file)
Pseudo Atom[  58] Name O48      Oxidation:          Element: O    pdb-name: O    Scat. Types:   9   8 Mass=15.999404927 B-factor:0.000   
                 Charge=-0.438455000   (av)  Polarization=0.802000000  [A^3] (considered a charged atom and no polarization)  Interactions: yes
                 Anisotropic factor:    0.000 [-] (Absolute), Radius:    0.640 [A], Framework-atom: yes (charge from structure file)
Pseudo Atom[  59] Name O49      Oxidation:          Element: O    pdb-name: O    Scat. Types:   9   8 Mass=15.999404927 B-factor:0.000   
                 Charge=-0.386195000   (av)  Polarization=0.802000000  [A^3] (considered a charged atom and no polarization)  Interactions: yes
                 Anisotropic factor:    0.000 [-] (Absolute), Radius:    0.640 [A], Framework-atom: yes (charge from structure file)
Pseudo Atom[  60] Name O50      Oxidation:          Element: O    pdb-name: O    Scat. Types:   9   8 Mass=15.999404927 B-factor:0.000   
                 Charge=-0.466436000   (av)  Polarization=0.802000000  [A^3] (considered a charged atom and no polarization)  Interactions: yes
                 Anisotropic factor:    0.000 [-] (Absolute), Radius:    0.640 [A], Framework-atom: yes (charge from structure file)
Pseudo Atom[  61] Name O51      Oxidation:          Element: O    pdb-name: O    Scat. Types:   9   8 Mass=15.999404927 B-factor:0.000   
                 Charge=-0.452982000   (av)  Polarization=0.802000000  [A^3] (considered a charged atom and no polarization)  Interactions: yes
                 Anisotropic factor:    0.000 [-] (Absolute), Radius:    0.640 [A], Framework-atom: yes (charge from structure file)
Pseudo Atom[  62] Name O52      Oxidation:          Element: O    pdb-name: O    Scat. Types:   9   8 Mass=15.999404927 B-factor:0.000   
                 Charge=-0.442530000   (av)  Polarization=0.802000000  [A^3] (considered a charged atom and no polarization)  Interactions: yes
                 Anisotropic factor:    0.000 [-] (Absolute), Radius:    0.640 [A], Framework-atom: yes (charge from structure file)
Pseudo Atom[  63] Name O53      Oxidation:          Element: O    pdb-name: O    Scat. Types:   9   8 Mass=15.999404927 B-factor:0.000   
                 Charge=-0.478354000   (av)  Polarization=0.802000000  [A^3] (considered a charged atom and no polarization)  Interactions: yes
                 Anisotropic factor:    0.000 [-] (Absolute), Radius:    0.640 [A], Framework-atom: yes (charge from structure file)
Pseudo Atom[  64] Name O54      Oxidation:          Element: O    pdb-name: O    Scat. Types:   9   8 Mass=15.999404927 B-factor:0.000   
                 Charge=-0.431654000   (av)  Polarization=0.802000000  [A^3] (considered a charged atom and no polarization)  Interactions: yes
                 Anisotropic factor:    0.000 [-] (Absolute), Radius:    0.640 [A], Framework-atom: yes (charge from structure file)
Pseudo Atom[  65] Name O55      Oxidation:          Element: O    pdb-name: O    Scat. Types:   9   8 Mass=15.999404927 B-factor:0.000   
                 Charge=-0.394813000   (av)  Polarization=0.802000000  [A^3] (considered a charged atom and no polarization)  Interactions: yes
                 Anisotropic factor:    0.000 [-] (Absolute), Radius:    0.640 [A], Framework-atom: yes (charge from structure file)
Pseudo Atom[  66] Name Zn56     Oxidation:          Element: Zn   pdb-name: Zn   Scat. Types:  31  30 Mass=65.408728088 B-factor:0.000   
                 Charge=1.267086000    (av)  Polarization=5.750000000  [A^3] (considered a charged atom and no polarization)  Interactions: yes
                 Anisotropic factor:    0.000 [-] (Absolute), Radius:    1.200 [A], Framework-atom: yes (charge from structure file)
Pseudo Atom[  67] Name Zn57     Oxidation:          Element: Zn   pdb-name: Zn   Scat. Types:  31  30 Mass=65.408728088 B-factor:0.000   
                 Charge=1.276113000    (av)  Polarization=5.750000000  [A^3] (considered a charged atom and no polarization)  Interactions: yes
                 Anisotropic factor:    0.000 [-] (Absolute), Radius:    1.200 [A], Framework-atom: yes (charge from structure file)


Forcefield: NH3_GCMC
===========================================================================
Minimal distance: 1
CutOff VDW : 12.000000 (144.000000)
CutOff VDW switching on: 10.800000 (116.640000)
CutOff charge-charge : 12.000000 (144.000000)
CutOff charge-charge switching on: 7.800000 (60.840000)
CutOff charge-bonddipole : 12.000000 (144.000000)
CutOff charge-bondipole switching on: 8.400000 (70.560000)
CutOff bonddipole-bonddipole : 12.000000 (144.000000)
CutOff bonddipole-bondipole switching on: 9.000000 (81.000000)
Polarization is neglected
TailCorrections are used
All potentials are shifted to zero at the Cutoff

General mixing rule: Lorentz-Berthelot mixing rules are used FIRST for cross terms
0 cross terms are overwritten using the individual mixing rules from the file 'force_field_mixing_rules.def'
and then 0 terms are overwritten using the specific interactions from the file 'force_field.def'

The force field and all the interactions:
     He -      He [LENNARD_JONES] p_0/k_B:  10.90000 [K], p_1: 2.64000 [A], shift/k_B:  -0.00494280 [K], tailcorrection: yes
     He -      Ar [LENNARD_JONES] p_0/k_B:  36.13613 [K], p_1: 3.02000 [A], shift/k_B:  -0.03671516 [K], tailcorrection: yes
     He -     CH4 [LENNARD_JONES] p_0/k_B:  40.16466 [K], p_1: 3.18500 [A], shift/k_B:  -0.05614633 [K], tailcorrection: yes
     He -   C_co2 [LENNARD_JONES] p_0/k_B:  17.15517 [K], p_1: 2.72000 [A], shift/k_B:  -0.00930512 [K], tailcorrection: yes
     He -   O_co2 [LENNARD_JONES] p_0/k_B:  29.34451 [K], p_1: 2.84500 [A], shift/k_B:  -0.02084087 [K], tailcorrection: yes
     He -    N_n2 [LENNARD_JONES] p_0/k_B:  19.80909 [K], p_1: 2.97500 [A], shift/k_B:  -0.01839323 [K], tailcorrection: yes
     He -   N_com [ZERO_POTENTIAL]
     He -   N_nh3 [LENNARD_JONES] p_0/k_B:  44.90546 [K], p_1: 3.03000 [A], shift/k_B:  -0.04653876 [K], tailcorrection: yes
     He -   H_nh3 [LENNARD_JONES] p_0/k_B:   0.00000 [K], p_1: 1.32000 [A], shift/k_B:  -0.00000000 [K], tailcorrection: yes
     He -      C0 [LENNARD_JONES] p_0/k_B:  22.83928 [K], p_1: 3.05649 [A], shift/k_B:  -0.02493896 [K], tailcorrection: yes
     He -      C1 [LENNARD_JONES] p_0/k_B:  22.83928 [K], p_1: 3.05649 [A], shift/k_B:  -0.02493896 [K], tailcorrection: yes
     He -      C2 [LENNARD_JONES] p_0/k_B:  22.83928 [K], p_1: 3.05649 [A], shift/k_B:  -0.02493896 [K], tailcorrection: yes
     He -      C3 [LENNARD_JONES] p_0/k_B:  22.83928 [K], p_1: 3.05649 [A], shift/k_B:  -0.02493896 [K], tailcorrection: yes
     He -      C4 [LENNARD_JONES] p_0/k_B:  22.83928 [K], p_1: 3.05649 [A], shift/k_B:  -0.02493896 [K], tailcorrection: yes
     He -      C5 [LENNARD_JONES] p_0/k_B:  22.83928 [K], p_1: 3.05649 [A], shift/k_B:  -0.02493896 [K], tailcorrection: yes
     He -      C6 [LENNARD_JONES] p_0/k_B:  22.83928 [K], p_1: 3.05649 [A], shift/k_B:  -0.02493896 [K], tailcorrection: yes
     He -      C7 [LENNARD_JONES] p_0/k_B:  22.83928 [K], p_1: 3.05649 [A], shift/k_B:  -0.02493896 [K], tailcorrection: yes
     He -      C8 [LENNARD_JONES] p_0/k_B:  22.83928 [K], p_1: 3.05649 [A], shift/k_B:  -0.02493896 [K], tailcorrection: yes
     He -      C9 [LENNARD_JONES] p_0/k_B:  22.83928 [K], p_1: 3.05649 [A], shift/k_B:  -0.02493896 [K], tailcorrection: yes
     He -     C10 [LENNARD_JONES] p_0/k_B:  22.83928 [K], p_1: 3.05649 [A], shift/k_B:  -0.02493896 [K], tailcorrection: yes
     He -     C11 [LENNARD_JONES] p_0/k_B:  22.83928 [K], p_1: 3.05649 [A], shift/k_B:  -0.02493896 [K], tailcorrection: yes
     He -     C12 [LENNARD_JONES] p_0/k_B:  22.83928 [K], p_1: 3.05649 [A], shift/k_B:  -0.02493896 [K], tailcorrection: yes
     He -     C13 [LENNARD_JONES] p_0/k_B:  22.83928 [K], p_1: 3.05649 [A], shift/k_B:  -0.02493896 [K], tailcorrection: yes
     He -     C14 [LENNARD_JONES] p_0/k_B:  22.83928 [K], p_1: 3.05649 [A], shift/k_B:  -0.02493896 [K], tailcorrection: yes
     He -     C15 [LENNARD_JONES] p_0/k_B:  22.83928 [K], p_1: 3.05649 [A], shift/k_B:  -0.02493896 [K], tailcorrection: yes
     He -     C16 [LENNARD_JONES] p_0/k_B:  22.83928 [K], p_1: 3.05649 [A], shift/k_B:  -0.02493896 [K], tailcorrection: yes
     He -     C17 [LENNARD_JONES] p_0/k_B:  22.83928 [K], p_1: 3.05649 [A], shift/k_B:  -0.02493896 [K], tailcorrection: yes
     He -     C18 [LENNARD_JONES] p_0/k_B:  22.83928 [K], p_1: 3.05649 [A], shift/k_B:  -0.02493896 [K], tailcorrection: yes
     He -     C19 [LENNARD_JONES] p_0/k_B:  22.83928 [K], p_1: 3.05649 [A], shift/k_B:  -0.02493896 [K], tailcorrection: yes
     He -     C20 [LENNARD_JONES] p_0/k_B:  22.83928 [K], p_1: 3.05649 [A], shift/k_B:  -0.02493896 [K], tailcorrection: yes
     He -     C21 [LENNARD_JONES] p_0/k_B:  22.83928 [K], p_1: 3.05649 [A], shift/k_B:  -0.02493896 [K], tailcorrection: yes
     He -     C22 [LENNARD_JONES] p_0/k_B:  22.83928 [K], p_1: 3.05649 [A], shift/k_B:  -0.02493896 [K], tailcorrection: yes
     He -     C23 [LENNARD_JONES] p_0/k_B:  22.83928 [K], p_1: 3.05649 [A], shift/k_B:  -0.02493896 [K], tailcorrection: yes
     He -     C24 [LENNARD_JONES] p_0/k_B:  22.83928 [K], p_1: 3.05649 [A], shift/k_B:  -0.02493896 [K], tailcorrection: yes
     He -     C25 [LENNARD_JONES] p_0/k_B:  22.83928 [K], p_1: 3.05649 [A], shift/k_B:  -0.02493896 [K], tailcorrection: yes
     He -     C26 [LENNARD_JONES] p_0/k_B:  22.83928 [K], p_1: 3.05649 [A], shift/k_B:  -0.02493896 [K], tailcorrection: yes
     He -     C27 [LENNARD_JONES] p_0/k_B:  22.83928 [K], p_1: 3.05649 [A], shift/k_B:  -0.02493896 [K], tailcorrection: yes
     He -     C28 [LENNARD_JONES] p_0/k_B:  22.83928 [K], p_1: 3.05649 [A], shift/k_B:  -0.02493896 [K], tailcorrection: yes
     He -     C29 [LENNARD_JONES] p_0/k_B:  22.83928 [K], p_1: 3.05649 [A], shift/k_B:  -0.02493896 [K], tailcorrection: yes
     He -     F30 [LENNARD_JONES] p_0/k_B:  19.94164 [K], p_1: 2.86660 [A], shift/k_B:  -0.01482024 [K], tailcorrection: yes
     He -     F31 [LENNARD_JONES] p_0/k_B:  19.94164 [K], p_1: 2.86660 [A], shift/k_B:  -0.01482024 [K], tailcorrection: yes
     He -     F32 [LENNARD_JONES] p_0/k_B:  19.94164 [K], p_1: 2.86660 [A], shift/k_B:  -0.01482024 [K], tailcorrection: yes
     He -     F33 [LENNARD_JONES] p_0/k_B:  19.94164 [K], p_1: 2.86660 [A], shift/k_B:  -0.01482024 [K], tailcorrection: yes
     He -     F34 [LENNARD_JONES] p_0/k_B:  19.94164 [K], p_1: 2.86660 [A], shift/k_B:  -0.01482024 [K], tailcorrection: yes
     He -     F35 [LENNARD_JONES] p_0/k_B:  19.94164 [K], p_1: 2.86660 [A], shift/k_B:  -0.01482024 [K], tailcorrection: yes
     He -     H36 [LENNARD_JONES] p_0/k_B:   9.13090 [K], p_1: 2.74321 [A], shift/k_B:  -0.00521169 [K], tailcorrection: yes
     He -     H37 [LENNARD_JONES] p_0/k_B:   9.13090 [K], p_1: 2.74321 [A], shift/k_B:  -0.00521169 [K], tailcorrection: yes
     He -     H38 [LENNARD_JONES] p_0/k_B:   9.13090 [K], p_1: 2.74321 [A], shift/k_B:  -0.00521169 [K], tailcorrection: yes
     He -     H39 [LENNARD_JONES] p_0/k_B:   9.13090 [K], p_1: 2.74321 [A], shift/k_B:  -0.00521169 [K], tailcorrection: yes
     He -     H40 [LENNARD_JONES] p_0/k_B:   9.13090 [K], p_1: 2.74321 [A], shift/k_B:  -0.00521169 [K], tailcorrection: yes
     He -     H41 [LENNARD_JONES] p_0/k_B:   9.13090 [K], p_1: 2.74321 [A], shift/k_B:  -0.00521169 [K], tailcorrection: yes
     He -     H42 [LENNARD_JONES] p_0/k_B:   9.13090 [K], p_1: 2.74321 [A], shift/k_B:  -0.00521169 [K], tailcorrection: yes
     He -     H43 [LENNARD_JONES] p_0/k_B:   9.13090 [K], p_1: 2.74321 [A], shift/k_B:  -0.00521169 [K], tailcorrection: yes
     He -     N46 [LENNARD_JONES] p_0/k_B:  20.60452 [K], p_1: 2.95128 [A], shift/k_B:  -0.01823482 [K], tailcorrection: yes
     He -     N47 [LENNARD_JONES] p_0/k_B:  20.60452 [K], p_1: 2.95128 [A], shift/k_B:  -0.01823482 [K], tailcorrection: yes
     He -     O48 [LENNARD_JONES] p_0/k_B:  22.91120 [K], p_1: 2.83657 [A], shift/k_B:  -0.01598491 [K], tailcorrection: yes
     He -     O49 [LENNARD_JONES] p_0/k_B:  22.91120 [K], p_1: 2.83657 [A], shift/k_B:  -0.01598491 [K], tailcorrection: yes
     He -     O50 [LENNARD_JONES] p_0/k_B:  22.91120 [K], p_1: 2.83657 [A], shift/k_B:  -0.01598491 [K], tailcorrection: yes
     He -     O51 [LENNARD_JONES] p_0/k_B:  22.91120 [K], p_1: 2.83657 [A], shift/k_B:  -0.01598491 [K], tailcorrection: yes
     He -     O52 [LENNARD_JONES] p_0/k_B:  22.91120 [K], p_1: 2.83657 [A], shift/k_B:  -0.01598491 [K], tailcorrection: yes
     He -     O53 [LENNARD_JONES] p_0/k_B:  22.91120 [K], p_1: 2.83657 [A], shift/k_B:  -0.01598491 [K], tailcorrection: yes
     He -     O54 [LENNARD_JONES] p_0/k_B:  22.91120 [K], p_1: 2.83657 [A], shift/k_B:  -0.01598491 [K], tailcorrection: yes
     He -     O55 [LENNARD_JONES] p_0/k_B:  22.91120 [K], p_1: 2.83657 [A], shift/k_B:  -0.01598491 [K], tailcorrection: yes
     He -    Zn56 [LENNARD_JONES] p_0/k_B:  26.07971 [K], p_1: 2.55077 [A], shift/k_B:  -0.00962206 [K], tailcorrection: yes
     He -    Zn57 [LENNARD_JONES] p_0/k_B:  26.07971 [K], p_1: 2.55077 [A], shift/k_B:  -0.00962206 [K], tailcorrection: yes
     Ar -      Ar [LENNARD_JONES] p_0/k_B: 119.80000 [K], p_1: 3.40000 [A], shift/k_B:  -0.24778676 [K], tailcorrection: yes
     Ar -     CH4 [LENNARD_JONES] p_0/k_B: 133.15555 [K], p_1: 3.56500 [A], shift/k_B:  -0.36592351 [K], tailcorrection: yes
     Ar -   C_co2 [LENNARD_JONES] p_0/k_B:  56.87354 [K], p_1: 3.10000 [A], shift/k_B:  -0.06759645 [K], tailcorrection: yes
     Ar -   O_co2 [LENNARD_JONES] p_0/k_B:  97.28412 [K], p_1: 3.22500 [A], shift/k_B:  -0.14656461 [K], tailcorrection: yes
     Ar -    N_n2 [LENNARD_JONES] p_0/k_B:  65.67191 [K], p_1: 3.35500 [A], shift/k_B:  -0.12540067 [K], tailcorrection: yes
     Ar -   N_com [ZERO_POTENTIAL]
     Ar -   N_nh3 [LENNARD_JONES] p_0/k_B: 148.87243 [K], p_1: 3.41000 [A], shift/k_B:  -0.31338942 [K], tailcorrection: yes
     Ar -   H_nh3 [LENNARD_JONES] p_0/k_B:   0.00000 [K], p_1: 1.70000 [A], shift/k_B:  -0.00000000 [K], tailcorrection: yes
     Ar -      C0 [LENNARD_JONES] p_0/k_B:  75.71772 [K], p_1: 3.43649 [A], shift/k_B:  -0.16696472 [K], tailcorrection: yes
     Ar -      C1 [LENNARD_JONES] p_0/k_B:  75.71772 [K], p_1: 3.43649 [A], shift/k_B:  -0.16696472 [K], tailcorrection: yes
     Ar -      C2 [LENNARD_JONES] p_0/k_B:  75.71772 [K], p_1: 3.43649 [A], shift/k_B:  -0.16696472 [K], tailcorrection: yes
     Ar -      C3 [LENNARD_JONES] p_0/k_B:  75.71772 [K], p_1: 3.43649 [A], shift/k_B:  -0.16696472 [K], tailcorrection: yes
     Ar -      C4 [LENNARD_JONES] p_0/k_B:  75.71772 [K], p_1: 3.43649 [A], shift/k_B:  -0.16696472 [K], tailcorrection: yes
     Ar -      C5 [LENNARD_JONES] p_0/k_B:  75.71772 [K], p_1: 3.43649 [A], shift/k_B:  -0.16696472 [K], tailcorrection: yes
     Ar -      C6 [LENNARD_JONES] p_0/k_B:  75.71772 [K], p_1: 3.43649 [A], shift/k_B:  -0.16696472 [K], tailcorrection: yes
     Ar -      C7 [LENNARD_JONES] p_0/k_B:  75.71772 [K], p_1: 3.43649 [A], shift/k_B:  -0.16696472 [K], tailcorrection: yes
     Ar -      C8 [LENNARD_JONES] p_0/k_B:  75.71772 [K], p_1: 3.43649 [A], shift/k_B:  -0.16696472 [K], tailcorrection: yes
     Ar -      C9 [LENNARD_JONES] p_0/k_B:  75.71772 [K], p_1: 3.43649 [A], shift/k_B:  -0.16696472 [K], tailcorrection: yes
     Ar -     C10 [LENNARD_JONES] p_0/k_B:  75.71772 [K], p_1: 3.43649 [A], shift/k_B:  -0.16696472 [K], tailcorrection: yes
     Ar -     C11 [LENNARD_JONES] p_0/k_B:  75.71772 [K], p_1: 3.43649 [A], shift/k_B:  -0.16696472 [K], tailcorrection: yes
     Ar -     C12 [LENNARD_JONES] p_0/k_B:  75.71772 [K], p_1: 3.43649 [A], shift/k_B:  -0.16696472 [K], tailcorrection: yes
     Ar -     C13 [LENNARD_JONES] p_0/k_B:  75.71772 [K], p_1: 3.43649 [A], shift/k_B:  -0.16696472 [K], tailcorrection: yes
     Ar -     C14 [LENNARD_JONES] p_0/k_B:  75.71772 [K], p_1: 3.43649 [A], shift/k_B:  -0.16696472 [K], tailcorrection: yes
     Ar -     C15 [LENNARD_JONES] p_0/k_B:  75.71772 [K], p_1: 3.43649 [A], shift/k_B:  -0.16696472 [K], tailcorrection: yes
     Ar -     C16 [LENNARD_JONES] p_0/k_B:  75.71772 [K], p_1: 3.43649 [A], shift/k_B:  -0.16696472 [K], tailcorrection: yes
     Ar -     C17 [LENNARD_JONES] p_0/k_B:  75.71772 [K], p_1: 3.43649 [A], shift/k_B:  -0.16696472 [K], tailcorrection: yes
     Ar -     C18 [LENNARD_JONES] p_0/k_B:  75.71772 [K], p_1: 3.43649 [A], shift/k_B:  -0.16696472 [K], tailcorrection: yes
     Ar -     C19 [LENNARD_JONES] p_0/k_B:  75.71772 [K], p_1: 3.43649 [A], shift/k_B:  -0.16696472 [K], tailcorrection: yes
     Ar -     C20 [LENNARD_JONES] p_0/k_B:  75.71772 [K], p_1: 3.43649 [A], shift/k_B:  -0.16696472 [K], tailcorrection: yes
     Ar -     C21 [LENNARD_JONES] p_0/k_B:  75.71772 [K], p_1: 3.43649 [A], shift/k_B:  -0.16696472 [K], tailcorrection: yes
     Ar -     C22 [LENNARD_JONES] p_0/k_B:  75.71772 [K], p_1: 3.43649 [A], shift/k_B:  -0.16696472 [K], tailcorrection: yes
     Ar -     C23 [LENNARD_JONES] p_0/k_B:  75.71772 [K], p_1: 3.43649 [A], shift/k_B:  -0.16696472 [K], tailcorrection: yes
     Ar -     C24 [LENNARD_JONES] p_0/k_B:  75.71772 [K], p_1: 3.43649 [A], shift/k_B:  -0.16696472 [K], tailcorrection: yes
     Ar -     C25 [LENNARD_JONES] p_0/k_B:  75.71772 [K], p_1: 3.43649 [A], shift/k_B:  -0.16696472 [K], tailcorrection: yes
     Ar -     C26 [LENNARD_JONES] p_0/k_B:  75.71772 [K], p_1: 3.43649 [A], shift/k_B:  -0.16696472 [K], tailcorrection: yes
     Ar -     C27 [LENNARD_JONES] p_0/k_B:  75.71772 [K], p_1: 3.43649 [A], shift/k_B:  -0.16696472 [K], tailcorrection: yes
     Ar -     C28 [LENNARD_JONES] p_0/k_B:  75.71772 [K], p_1: 3.43649 [A], shift/k_B:  -0.16696472 [K], tailcorrection: yes
     Ar -     C29 [LENNARD_JONES] p_0/k_B:  75.71772 [K], p_1: 3.43649 [A], shift/k_B:  -0.16696472 [K], tailcorrection: yes
     Ar -     F30 [LENNARD_JONES] p_0/k_B:  66.11136 [K], p_1: 3.24660 [A], shift/k_B:  -0.10366948 [K], tailcorrection: yes
     Ar -     F31 [LENNARD_JONES] p_0/k_B:  66.11136 [K], p_1: 3.24660 [A], shift/k_B:  -0.10366948 [K], tailcorrection: yes
     Ar -     F32 [LENNARD_JONES] p_0/k_B:  66.11136 [K], p_1: 3.24660 [A], shift/k_B:  -0.10366948 [K], tailcorrection: yes
     Ar -     F33 [LENNARD_JONES] p_0/k_B:  66.11136 [K], p_1: 3.24660 [A], shift/k_B:  -0.10366948 [K], tailcorrection: yes
     Ar -     F34 [LENNARD_JONES] p_0/k_B:  66.11136 [K], p_1: 3.24660 [A], shift/k_B:  -0.10366948 [K], tailcorrection: yes
     Ar -     F35 [LENNARD_JONES] p_0/k_B:  66.11136 [K], p_1: 3.24660 [A], shift/k_B:  -0.10366948 [K], tailcorrection: yes
     Ar -     H36 [LENNARD_JONES] p_0/k_B:  30.27114 [K], p_1: 3.12321 [A], shift/k_B:  -0.03762473 [K], tailcorrection: yes
     Ar -     H37 [LENNARD_JONES] p_0/k_B:  30.27114 [K], p_1: 3.12321 [A], shift/k_B:  -0.03762473 [K], tailcorrection: yes
     Ar -     H38 [LENNARD_JONES] p_0/k_B:  30.27114 [K], p_1: 3.12321 [A], shift/k_B:  -0.03762473 [K], tailcorrection: yes
     Ar -     H39 [LENNARD_JONES] p_0/k_B:  30.27114 [K], p_1: 3.12321 [A], shift/k_B:  -0.03762473 [K], tailcorrection: yes
     Ar -     H40 [LENNARD_JONES] p_0/k_B:  30.27114 [K], p_1: 3.12321 [A], shift/k_B:  -0.03762473 [K], tailcorrection: yes
     Ar -     H41 [LENNARD_JONES] p_0/k_B:  30.27114 [K], p_1: 3.12321 [A], shift/k_B:  -0.03762473 [K], tailcorrection: yes
     Ar -     H42 [LENNARD_JONES] p_0/k_B:  30.27114 [K], p_1: 3.12321 [A], shift/k_B:  -0.03762473 [K], tailcorrection: yes
     Ar -     H43 [LENNARD_JONES] p_0/k_B:  30.27114 [K], p_1: 3.12321 [A], shift/k_B:  -0.03762473 [K], tailcorrection: yes
     Ar -     N46 [LENNARD_JONES] p_0/k_B:  68.30896 [K], p_1: 3.33128 [A], shift/k_B:  -0.12500236 [K], tailcorrection: yes
     Ar -     N47 [LENNARD_JONES] p_0/k_B:  68.30896 [K], p_1: 3.33128 [A], shift/k_B:  -0.12500236 [K], tailcorrection: yes
     Ar -     O48 [LENNARD_JONES] p_0/k_B:  75.95617 [K], p_1: 3.21657 [A], shift/k_B:  -0.11265139 [K], tailcorrection: yes
     Ar -     O49 [LENNARD_JONES] p_0/k_B:  75.95617 [K], p_1: 3.21657 [A], shift/k_B:  -0.11265139 [K], tailcorrection: yes
     Ar -     O50 [LENNARD_JONES] p_0/k_B:  75.95617 [K], p_1: 3.21657 [A], shift/k_B:  -0.11265139 [K], tailcorrection: yes
     Ar -     O51 [LENNARD_JONES] p_0/k_B:  75.95617 [K], p_1: 3.21657 [A], shift/k_B:  -0.11265139 [K], tailcorrection: yes
     Ar -     O52 [LENNARD_JONES] p_0/k_B:  75.95617 [K], p_1: 3.21657 [A], shift/k_B:  -0.11265139 [K], tailcorrection: yes
     Ar -     O53 [LENNARD_JONES] p_0/k_B:  75.95617 [K], p_1: 3.21657 [A], shift/k_B:  -0.11265139 [K], tailcorrection: yes
     Ar -     O54 [LENNARD_JONES] p_0/k_B:  75.95617 [K], p_1: 3.21657 [A], shift/k_B:  -0.11265139 [K], tailcorrection: yes
     Ar -     O55 [LENNARD_JONES] p_0/k_B:  75.95617 [K], p_1: 3.21657 [A], shift/k_B:  -0.11265139 [K], tailcorrection: yes
     Ar -    Zn56 [LENNARD_JONES] p_0/k_B:  86.46054 [K], p_1: 2.93077 [A], shift/k_B:  -0.07338260 [K], tailcorrection: yes
     Ar -    Zn57 [LENNARD_JONES] p_0/k_B:  86.46054 [K], p_1: 2.93077 [A], shift/k_B:  -0.07338260 [K], tailcorrection: yes
    CH4 -     CH4 [LENNARD_JONES] p_0/k_B: 148.00000 [K], p_1: 3.73000 [A], shift/k_B:  -0.53345200 [K], tailcorrection: yes
    CH4 -   C_co2 [LENNARD_JONES] p_0/k_B:  63.21392 [K], p_1: 3.26500 [A], shift/k_B:  -0.10254350 [K], tailcorrection: yes
    CH4 -   O_co2 [LENNARD_JONES] p_0/k_B: 108.12955 [K], p_1: 3.39000 [A], shift/k_B:  -0.21973250 [K], tailcorrection: yes
    CH4 -    N_n2 [LENNARD_JONES] p_0/k_B:  72.99315 [K], p_1: 3.52000 [A], shift/k_B:  -0.18588051 [K], tailcorrection: yes
    CH4 -   N_com [ZERO_POTENTIAL]
    CH4 -   N_nh3 [LENNARD_JONES] p_0/k_B: 165.46903 [K], p_1: 3.57500 [A], shift/k_B:  -0.46242550 [K], tailcorrection: yes
    CH4 -   H_nh3 [LENNARD_JONES] p_0/k_B:   0.00000 [K], p_1: 1.86500 [A], shift/k_B:  -0.00000000 [K], tailcorrection: yes
    CH4 -      C0 [LENNARD_JONES] p_0/k_B:  84.15888 [K], p_1: 3.60149 [A], shift/k_B:  -0.24583962 [K], tailcorrection: yes
    CH4 -      C1 [LENNARD_JONES] p_0/k_B:  84.15888 [K], p_1: 3.60149 [A], shift/k_B:  -0.24583962 [K], tailcorrection: yes
    CH4 -      C2 [LENNARD_JONES] p_0/k_B:  84.15888 [K], p_1: 3.60149 [A], shift/k_B:  -0.24583962 [K], tailcorrection: yes
    CH4 -      C3 [LENNARD_JONES] p_0/k_B:  84.15888 [K], p_1: 3.60149 [A], shift/k_B:  -0.24583962 [K], tailcorrection: yes
    CH4 -      C4 [LENNARD_JONES] p_0/k_B:  84.15888 [K], p_1: 3.60149 [A], shift/k_B:  -0.24583962 [K], tailcorrection: yes
    CH4 -      C5 [LENNARD_JONES] p_0/k_B:  84.15888 [K], p_1: 3.60149 [A], shift/k_B:  -0.24583962 [K], tailcorrection: yes
    CH4 -      C6 [LENNARD_JONES] p_0/k_B:  84.15888 [K], p_1: 3.60149 [A], shift/k_B:  -0.24583962 [K], tailcorrection: yes
    CH4 -      C7 [LENNARD_JONES] p_0/k_B:  84.15888 [K], p_1: 3.60149 [A], shift/k_B:  -0.24583962 [K], tailcorrection: yes
    CH4 -      C8 [LENNARD_JONES] p_0/k_B:  84.15888 [K], p_1: 3.60149 [A], shift/k_B:  -0.24583962 [K], tailcorrection: yes
    CH4 -      C9 [LENNARD_JONES] p_0/k_B:  84.15888 [K], p_1: 3.60149 [A], shift/k_B:  -0.24583962 [K], tailcorrection: yes
    CH4 -     C10 [LENNARD_JONES] p_0/k_B:  84.15888 [K], p_1: 3.60149 [A], shift/k_B:  -0.24583962 [K], tailcorrection: yes
    CH4 -     C11 [LENNARD_JONES] p_0/k_B:  84.15888 [K], p_1: 3.60149 [A], shift/k_B:  -0.24583962 [K], tailcorrection: yes
    CH4 -     C12 [LENNARD_JONES] p_0/k_B:  84.15888 [K], p_1: 3.60149 [A], shift/k_B:  -0.24583962 [K], tailcorrection: yes
    CH4 -     C13 [LENNARD_JONES] p_0/k_B:  84.15888 [K], p_1: 3.60149 [A], shift/k_B:  -0.24583962 [K], tailcorrection: yes
    CH4 -     C14 [LENNARD_JONES] p_0/k_B:  84.15888 [K], p_1: 3.60149 [A], shift/k_B:  -0.24583962 [K], tailcorrection: yes
    CH4 -     C15 [LENNARD_JONES] p_0/k_B:  84.15888 [K], p_1: 3.60149 [A], shift/k_B:  -0.24583962 [K], tailcorrection: yes
    CH4 -     C16 [LENNARD_JONES] p_0/k_B:  84.15888 [K], p_1: 3.60149 [A], shift/k_B:  -0.24583962 [K], tailcorrection: yes
    CH4 -     C17 [LENNARD_JONES] p_0/k_B:  84.15888 [K], p_1: 3.60149 [A], shift/k_B:  -0.24583962 [K], tailcorrection: yes
    CH4 -     C18 [LENNARD_JONES] p_0/k_B:  84.15888 [K], p_1: 3.60149 [A], shift/k_B:  -0.24583962 [K], tailcorrection: yes
    CH4 -     C19 [LENNARD_JONES] p_0/k_B:  84.15888 [K], p_1: 3.60149 [A], shift/k_B:  -0.24583962 [K], tailcorrection: yes
    CH4 -     C20 [LENNARD_JONES] p_0/k_B:  84.15888 [K], p_1: 3.60149 [A], shift/k_B:  -0.24583962 [K], tailcorrection: yes
    CH4 -     C21 [LENNARD_JONES] p_0/k_B:  84.15888 [K], p_1: 3.60149 [A], shift/k_B:  -0.24583962 [K], tailcorrection: yes
    CH4 -     C22 [LENNARD_JONES] p_0/k_B:  84.15888 [K], p_1: 3.60149 [A], shift/k_B:  -0.24583962 [K], tailcorrection: yes
    CH4 -     C23 [LENNARD_JONES] p_0/k_B:  84.15888 [K], p_1: 3.60149 [A], shift/k_B:  -0.24583962 [K], tailcorrection: yes
    CH4 -     C24 [LENNARD_JONES] p_0/k_B:  84.15888 [K], p_1: 3.60149 [A], shift/k_B:  -0.24583962 [K], tailcorrection: yes
    CH4 -     C25 [LENNARD_JONES] p_0/k_B:  84.15888 [K], p_1: 3.60149 [A], shift/k_B:  -0.24583962 [K], tailcorrection: yes
    CH4 -     C26 [LENNARD_JONES] p_0/k_B:  84.15888 [K], p_1: 3.60149 [A], shift/k_B:  -0.24583962 [K], tailcorrection: yes
    CH4 -     C27 [LENNARD_JONES] p_0/k_B:  84.15888 [K], p_1: 3.60149 [A], shift/k_B:  -0.24583962 [K], tailcorrection: yes
    CH4 -     C28 [LENNARD_JONES] p_0/k_B:  84.15888 [K], p_1: 3.60149 [A], shift/k_B:  -0.24583962 [K], tailcorrection: yes
    CH4 -     C29 [LENNARD_JONES] p_0/k_B:  84.15888 [K], p_1: 3.60149 [A], shift/k_B:  -0.24583962 [K], tailcorrection: yes
    CH4 -     F30 [LENNARD_JONES] p_0/k_B:  73.48158 [K], p_1: 3.41160 [A], shift/k_B:  -0.15512089 [K], tailcorrection: yes
    CH4 -     F31 [LENNARD_JONES] p_0/k_B:  73.48158 [K], p_1: 3.41160 [A], shift/k_B:  -0.15512089 [K], tailcorrection: yes
    CH4 -     F32 [LENNARD_JONES] p_0/k_B:  73.48158 [K], p_1: 3.41160 [A], shift/k_B:  -0.15512089 [K], tailcorrection: yes
    CH4 -     F33 [LENNARD_JONES] p_0/k_B:  73.48158 [K], p_1: 3.41160 [A], shift/k_B:  -0.15512089 [K], tailcorrection: yes
    CH4 -     F34 [LENNARD_JONES] p_0/k_B:  73.48158 [K], p_1: 3.41160 [A], shift/k_B:  -0.15512089 [K], tailcorrection: yes
    CH4 -     F35 [LENNARD_JONES] p_0/k_B:  73.48158 [K], p_1: 3.41160 [A], shift/k_B:  -0.15512089 [K], tailcorrection: yes
    CH4 -     H36 [LENNARD_JONES] p_0/k_B:  33.64583 [K], p_1: 3.28821 [A], shift/k_B:  -0.05694782 [K], tailcorrection: yes
    CH4 -     H37 [LENNARD_JONES] p_0/k_B:  33.64583 [K], p_1: 3.28821 [A], shift/k_B:  -0.05694782 [K], tailcorrection: yes
    CH4 -     H38 [LENNARD_JONES] p_0/k_B:  33.64583 [K], p_1: 3.28821 [A], shift/k_B:  -0.05694782 [K], tailcorrection: yes
    CH4 -     H39 [LENNARD_JONES] p_0/k_B:  33.64583 [K], p_1: 3.28821 [A], shift/k_B:  -0.05694782 [K], tailcorrection: yes
    CH4 -     H40 [LENNARD_JONES] p_0/k_B:  33.64583 [K], p_1: 3.28821 [A], shift/k_B:  -0.05694782 [K], tailcorrection: yes
    CH4 -     H41 [LENNARD_JONES] p_0/k_B:  33.64583 [K], p_1: 3.28821 [A], shift/k_B:  -0.05694782 [K], tailcorrection: yes
    CH4 -     H42 [LENNARD_JONES] p_0/k_B:  33.64583 [K], p_1: 3.28821 [A], shift/k_B:  -0.05694782 [K], tailcorrection: yes
    CH4 -     H43 [LENNARD_JONES] p_0/k_B:  33.64583 [K], p_1: 3.28821 [A], shift/k_B:  -0.05694782 [K], tailcorrection: yes
    CH4 -     N46 [LENNARD_JONES] p_0/k_B:  75.92418 [K], p_1: 3.49628 [A], shift/k_B:  -0.18566247 [K], tailcorrection: yes
    CH4 -     N47 [LENNARD_JONES] p_0/k_B:  75.92418 [K], p_1: 3.49628 [A], shift/k_B:  -0.18566247 [K], tailcorrection: yes
    CH4 -     O48 [LENNARD_JONES] p_0/k_B:  84.42392 [K], p_1: 3.38157 [A], shift/k_B:  -0.16901866 [K], tailcorrection: yes
    CH4 -     O49 [LENNARD_JONES] p_0/k_B:  84.42392 [K], p_1: 3.38157 [A], shift/k_B:  -0.16901866 [K], tailcorrection: yes
    CH4 -     O50 [LENNARD_JONES] p_0/k_B:  84.42392 [K], p_1: 3.38157 [A], shift/k_B:  -0.16901866 [K], tailcorrection: yes
    CH4 -     O51 [LENNARD_JONES] p_0/k_B:  84.42392 [K], p_1: 3.38157 [A], shift/k_B:  -0.16901866 [K], tailcorrection: yes
    CH4 -     O52 [LENNARD_JONES] p_0/k_B:  84.42392 [K], p_1: 3.38157 [A], shift/k_B:  -0.16901866 [K], tailcorrection: yes
    CH4 -     O53 [LENNARD_JONES] p_0/k_B:  84.42392 [K], p_1: 3.38157 [A], shift/k_B:  -0.16901866 [K], tailcorrection: yes
    CH4 -     O54 [LENNARD_JONES] p_0/k_B:  84.42392 [K], p_1: 3.38157 [A], shift/k_B:  -0.16901866 [K], tailcorrection: yes
    CH4 -     O55 [LENNARD_JONES] p_0/k_B:  84.42392 [K], p_1: 3.38157 [A], shift/k_B:  -0.16901866 [K], tailcorrection: yes
    CH4 -    Zn56 [LENNARD_JONES] p_0/k_B:  96.09933 [K], p_1: 3.09577 [A], shift/k_B:  -0.11328728 [K], tailcorrection: yes
    CH4 -    Zn57 [LENNARD_JONES] p_0/k_B:  96.09933 [K], p_1: 3.09577 [A], shift/k_B:  -0.11328728 [K], tailcorrection: yes
  C_co2 -   C_co2 [LENNARD_JONES] p_0/k_B:  27.00000 [K], p_1: 2.80000 [A], shift/k_B:  -0.01742667 [K], tailcorrection: yes
  C_co2 -   O_co2 [LENNARD_JONES] p_0/k_B:  46.18441 [K], p_1: 2.92500 [A], shift/k_B:  -0.03873754 [K], tailcorrection: yes
  C_co2 -    N_n2 [LENNARD_JONES] p_0/k_B:  31.17691 [K], p_1: 3.05500 [A], shift/k_B:  -0.03394335 [K], tailcorrection: yes
  C_co2 -   N_com [ZERO_POTENTIAL]
  C_co2 -   N_nh3 [LENNARD_JONES] p_0/k_B:  70.67531 [K], p_1: 3.11000 [A], shift/k_B:  -0.08563888 [K], tailcorrection: yes
  C_co2 -   H_nh3 [LENNARD_JONES] p_0/k_B:   0.00000 [K], p_1: 1.40000 [A], shift/k_B:  -0.00000000 [K], tailcorrection: yes
  C_co2 -      C0 [LENNARD_JONES] p_0/k_B:  35.94603 [K], p_1: 3.13650 [A], shift/k_B:  -0.04583029 [K], tailcorrection: yes
  C_co2 -      C1 [LENNARD_JONES] p_0/k_B:  35.94603 [K], p_1: 3.13650 [A], shift/k_B:  -0.04583029 [K], tailcorrection: yes
  C_co2 -      C2 [LENNARD_JONES] p_0/k_B:  35.94603 [K], p_1: 3.13650 [A], shift/k_B:  -0.04583029 [K], tailcorrection: yes
  C_co2 -      C3 [LENNARD_JONES] p_0/k_B:  35.94603 [K], p_1: 3.13650 [A], shift/k_B:  -0.04583029 [K], tailcorrection: yes
  C_co2 -      C4 [LENNARD_JONES] p_0/k_B:  35.94603 [K], p_1: 3.13650 [A], shift/k_B:  -0.04583029 [K], tailcorrection: yes
  C_co2 -      C5 [LENNARD_JONES] p_0/k_B:  35.94603 [K], p_1: 3.13650 [A], shift/k_B:  -0.04583029 [K], tailcorrection: yes
  C_co2 -      C6 [LENNARD_JONES] p_0/k_B:  35.94603 [K], p_1: 3.13650 [A], shift/k_B:  -0.04583029 [K], tailcorrection: yes
  C_co2 -      C7 [LENNARD_JONES] p_0/k_B:  35.94603 [K], p_1: 3.13650 [A], shift/k_B:  -0.04583029 [K], tailcorrection: yes
  C_co2 -      C8 [LENNARD_JONES] p_0/k_B:  35.94603 [K], p_1: 3.13650 [A], shift/k_B:  -0.04583029 [K], tailcorrection: yes
  C_co2 -      C9 [LENNARD_JONES] p_0/k_B:  35.94603 [K], p_1: 3.13650 [A], shift/k_B:  -0.04583029 [K], tailcorrection: yes
  C_co2 -     C10 [LENNARD_JONES] p_0/k_B:  35.94603 [K], p_1: 3.13650 [A], shift/k_B:  -0.04583029 [K], tailcorrection: yes
  C_co2 -     C11 [LENNARD_JONES] p_0/k_B:  35.94603 [K], p_1: 3.13650 [A], shift/k_B:  -0.04583029 [K], tailcorrection: yes
  C_co2 -     C12 [LENNARD_JONES] p_0/k_B:  35.94603 [K], p_1: 3.13650 [A], shift/k_B:  -0.04583029 [K], tailcorrection: yes
  C_co2 -     C13 [LENNARD_JONES] p_0/k_B:  35.94603 [K], p_1: 3.13650 [A], shift/k_B:  -0.04583029 [K], tailcorrection: yes
  C_co2 -     C14 [LENNARD_JONES] p_0/k_B:  35.94603 [K], p_1: 3.13650 [A], shift/k_B:  -0.04583029 [K], tailcorrection: yes
  C_co2 -     C15 [LENNARD_JONES] p_0/k_B:  35.94603 [K], p_1: 3.13650 [A], shift/k_B:  -0.04583029 [K], tailcorrection: yes
  C_co2 -     C16 [LENNARD_JONES] p_0/k_B:  35.94603 [K], p_1: 3.13650 [A], shift/k_B:  -0.04583029 [K], tailcorrection: yes
  C_co2 -     C17 [LENNARD_JONES] p_0/k_B:  35.94603 [K], p_1: 3.13650 [A], shift/k_B:  -0.04583029 [K], tailcorrection: yes
  C_co2 -     C18 [LENNARD_JONES] p_0/k_B:  35.94603 [K], p_1: 3.13650 [A], shift/k_B:  -0.04583029 [K], tailcorrection: yes
  C_co2 -     C19 [LENNARD_JONES] p_0/k_B:  35.94603 [K], p_1: 3.13650 [A], shift/k_B:  -0.04583029 [K], tailcorrection: yes
  C_co2 -     C20 [LENNARD_JONES] p_0/k_B:  35.94603 [K], p_1: 3.13650 [A], shift/k_B:  -0.04583029 [K], tailcorrection: yes
  C_co2 -     C21 [LENNARD_JONES] p_0/k_B:  35.94603 [K], p_1: 3.13650 [A], shift/k_B:  -0.04583029 [K], tailcorrection: yes
  C_co2 -     C22 [LENNARD_JONES] p_0/k_B:  35.94603 [K], p_1: 3.13650 [A], shift/k_B:  -0.04583029 [K], tailcorrection: yes
  C_co2 -     C23 [LENNARD_JONES] p_0/k_B:  35.94603 [K], p_1: 3.13650 [A], shift/k_B:  -0.04583029 [K], tailcorrection: yes
  C_co2 -     C24 [LENNARD_JONES] p_0/k_B:  35.94603 [K], p_1: 3.13650 [A], shift/k_B:  -0.04583029 [K], tailcorrection: yes
  C_co2 -     C25 [LENNARD_JONES] p_0/k_B:  35.94603 [K], p_1: 3.13650 [A], shift/k_B:  -0.04583029 [K], tailcorrection: yes
  C_co2 -     C26 [LENNARD_JONES] p_0/k_B:  35.94603 [K], p_1: 3.13650 [A], shift/k_B:  -0.04583029 [K], tailcorrection: yes
  C_co2 -     C27 [LENNARD_JONES] p_0/k_B:  35.94603 [K], p_1: 3.13650 [A], shift/k_B:  -0.04583029 [K], tailcorrection: yes
  C_co2 -     C28 [LENNARD_JONES] p_0/k_B:  35.94603 [K], p_1: 3.13650 [A], shift/k_B:  -0.04583029 [K], tailcorrection: yes
  C_co2 -     C29 [LENNARD_JONES] p_0/k_B:  35.94603 [K], p_1: 3.13650 [A], shift/k_B:  -0.04583029 [K], tailcorrection: yes
  C_co2 -     F30 [LENNARD_JONES] p_0/k_B:  31.38553 [K], p_1: 2.94660 [A], shift/k_B:  -0.02751275 [K], tailcorrection: yes
  C_co2 -     F31 [LENNARD_JONES] p_0/k_B:  31.38553 [K], p_1: 2.94660 [A], shift/k_B:  -0.02751275 [K], tailcorrection: yes
  C_co2 -     F32 [LENNARD_JONES] p_0/k_B:  31.38553 [K], p_1: 2.94660 [A], shift/k_B:  -0.02751275 [K], tailcorrection: yes
  C_co2 -     F33 [LENNARD_JONES] p_0/k_B:  31.38553 [K], p_1: 2.94660 [A], shift/k_B:  -0.02751275 [K], tailcorrection: yes
  C_co2 -     F34 [LENNARD_JONES] p_0/k_B:  31.38553 [K], p_1: 2.94660 [A], shift/k_B:  -0.02751275 [K], tailcorrection: yes
  C_co2 -     F35 [LENNARD_JONES] p_0/k_B:  31.38553 [K], p_1: 2.94660 [A], shift/k_B:  -0.02751275 [K], tailcorrection: yes
  C_co2 -     H36 [LENNARD_JONES] p_0/k_B:  14.37084 [K], p_1: 2.82321 [A], shift/k_B:  -0.00974631 [K], tailcorrection: yes
  C_co2 -     H37 [LENNARD_JONES] p_0/k_B:  14.37084 [K], p_1: 2.82321 [A], shift/k_B:  -0.00974631 [K], tailcorrection: yes
  C_co2 -     H38 [LENNARD_JONES] p_0/k_B:  14.37084 [K], p_1: 2.82321 [A], shift/k_B:  -0.00974631 [K], tailcorrection: yes
  C_co2 -     H39 [LENNARD_JONES] p_0/k_B:  14.37084 [K], p_1: 2.82321 [A], shift/k_B:  -0.00974631 [K], tailcorrection: yes
  C_co2 -     H40 [LENNARD_JONES] p_0/k_B:  14.37084 [K], p_1: 2.82321 [A], shift/k_B:  -0.00974631 [K], tailcorrection: yes
  C_co2 -     H41 [LENNARD_JONES] p_0/k_B:  14.37084 [K], p_1: 2.82321 [A], shift/k_B:  -0.00974631 [K], tailcorrection: yes
  C_co2 -     H42 [LENNARD_JONES] p_0/k_B:  14.37084 [K], p_1: 2.82321 [A], shift/k_B:  -0.00974631 [K], tailcorrection: yes
  C_co2 -     H43 [LENNARD_JONES] p_0/k_B:  14.37084 [K], p_1: 2.82321 [A], shift/k_B:  -0.00974631 [K], tailcorrection: yes
  C_co2 -     N46 [LENNARD_JONES] p_0/k_B:  32.42882 [K], p_1: 3.03128 [A], shift/k_B:  -0.03369358 [K], tailcorrection: yes
  C_co2 -     N47 [LENNARD_JONES] p_0/k_B:  32.42882 [K], p_1: 3.03128 [A], shift/k_B:  -0.03369358 [K], tailcorrection: yes
  C_co2 -     O48 [LENNARD_JONES] p_0/k_B:  36.05924 [K], p_1: 2.91657 [A], shift/k_B:  -0.02972613 [K], tailcorrection: yes
  C_co2 -     O49 [LENNARD_JONES] p_0/k_B:  36.05924 [K], p_1: 2.91657 [A], shift/k_B:  -0.02972613 [K], tailcorrection: yes
  C_co2 -     O50 [LENNARD_JONES] p_0/k_B:  36.05924 [K], p_1: 2.91657 [A], shift/k_B:  -0.02972613 [K], tailcorrection: yes
  C_co2 -     O51 [LENNARD_JONES] p_0/k_B:  36.05924 [K], p_1: 2.91657 [A], shift/k_B:  -0.02972613 [K], tailcorrection: yes
  C_co2 -     O52 [LENNARD_JONES] p_0/k_B:  36.05924 [K], p_1: 2.91657 [A], shift/k_B:  -0.02972613 [K], tailcorrection: yes
  C_co2 -     O53 [LENNARD_JONES] p_0/k_B:  36.05924 [K], p_1: 2.91657 [A], shift/k_B:  -0.02972613 [K], tailcorrection: yes
  C_co2 -     O54 [LENNARD_JONES] p_0/k_B:  36.05924 [K], p_1: 2.91657 [A], shift/k_B:  -0.02972613 [K], tailcorrection: yes
  C_co2 -     O55 [LENNARD_JONES] p_0/k_B:  36.05924 [K], p_1: 2.91657 [A], shift/k_B:  -0.02972613 [K], tailcorrection: yes
  C_co2 -    Zn56 [LENNARD_JONES] p_0/k_B:  41.04605 [K], p_1: 2.63077 [A], shift/k_B:  -0.01822628 [K], tailcorrection: yes
  C_co2 -    Zn57 [LENNARD_JONES] p_0/k_B:  41.04605 [K], p_1: 2.63077 [A], shift/k_B:  -0.01822628 [K], tailcorrection: yes
  O_co2 -   O_co2 [LENNARD_JONES] p_0/k_B:  79.00000 [K], p_1: 3.05000 [A], shift/k_B:  -0.08516900 [K], tailcorrection: yes
  O_co2 -    N_n2 [LENNARD_JONES] p_0/k_B:  53.32917 [K], p_1: 3.18000 [A], shift/k_B:  -0.07384985 [K], tailcorrection: yes
  O_co2 -   N_com [ZERO_POTENTIAL]
  O_co2 -   N_nh3 [LENNARD_JONES] p_0/k_B: 120.89251 [K], p_1: 3.23500 [A], shift/k_B:  -0.18554570 [K], tailcorrection: yes
  O_co2 -   H_nh3 [LENNARD_JONES] p_0/k_B:   0.00000 [K], p_1: 1.52500 [A], shift/k_B:  -0.00000000 [K], tailcorrection: yes
  O_co2 -      C0 [LENNARD_JONES] p_0/k_B:  61.48691 [K], p_1: 3.26150 [A], shift/k_B:  -0.09910153 [K], tailcorrection: yes
  O_co2 -      C1 [LENNARD_JONES] p_0/k_B:  61.48691 [K], p_1: 3.26150 [A], shift/k_B:  -0.09910153 [K], tailcorrection: yes
  O_co2 -      C2 [LENNARD_JONES] p_0/k_B:  61.48691 [K], p_1: 3.26150 [A], shift/k_B:  -0.09910153 [K], tailcorrection: yes
  O_co2 -      C3 [LENNARD_JONES] p_0/k_B:  61.48691 [K], p_1: 3.26150 [A], shift/k_B:  -0.09910153 [K], tailcorrection: yes
  O_co2 -      C4 [LENNARD_JONES] p_0/k_B:  61.48691 [K], p_1: 3.26150 [A], shift/k_B:  -0.09910153 [K], tailcorrection: yes
  O_co2 -      C5 [LENNARD_JONES] p_0/k_B:  61.48691 [K], p_1: 3.26150 [A], shift/k_B:  -0.09910153 [K], tailcorrection: yes
  O_co2 -      C6 [LENNARD_JONES] p_0/k_B:  61.48691 [K], p_1: 3.26150 [A], shift/k_B:  -0.09910153 [K], tailcorrection: yes
  O_co2 -      C7 [LENNARD_JONES] p_0/k_B:  61.48691 [K], p_1: 3.26150 [A], shift/k_B:  -0.09910153 [K], tailcorrection: yes
  O_co2 -      C8 [LENNARD_JONES] p_0/k_B:  61.48691 [K], p_1: 3.26150 [A], shift/k_B:  -0.09910153 [K], tailcorrection: yes
  O_co2 -      C9 [LENNARD_JONES] p_0/k_B:  61.48691 [K], p_1: 3.26150 [A], shift/k_B:  -0.09910153 [K], tailcorrection: yes
  O_co2 -     C10 [LENNARD_JONES] p_0/k_B:  61.48691 [K], p_1: 3.26150 [A], shift/k_B:  -0.09910153 [K], tailcorrection: yes
  O_co2 -     C11 [LENNARD_JONES] p_0/k_B:  61.48691 [K], p_1: 3.26150 [A], shift/k_B:  -0.09910153 [K], tailcorrection: yes
  O_co2 -     C12 [LENNARD_JONES] p_0/k_B:  61.48691 [K], p_1: 3.26150 [A], shift/k_B:  -0.09910153 [K], tailcorrection: yes
  O_co2 -     C13 [LENNARD_JONES] p_0/k_B:  61.48691 [K], p_1: 3.26150 [A], shift/k_B:  -0.09910153 [K], tailcorrection: yes
  O_co2 -     C14 [LENNARD_JONES] p_0/k_B:  61.48691 [K], p_1: 3.26150 [A], shift/k_B:  -0.09910153 [K], tailcorrection: yes
  O_co2 -     C15 [LENNARD_JONES] p_0/k_B:  61.48691 [K], p_1: 3.26150 [A], shift/k_B:  -0.09910153 [K], tailcorrection: yes
  O_co2 -     C16 [LENNARD_JONES] p_0/k_B:  61.48691 [K], p_1: 3.26150 [A], shift/k_B:  -0.09910153 [K], tailcorrection: yes
  O_co2 -     C17 [LENNARD_JONES] p_0/k_B:  61.48691 [K], p_1: 3.26150 [A], shift/k_B:  -0.09910153 [K], tailcorrection: yes
  O_co2 -     C18 [LENNARD_JONES] p_0/k_B:  61.48691 [K], p_1: 3.26150 [A], shift/k_B:  -0.09910153 [K], tailcorrection: yes
  O_co2 -     C19 [LENNARD_JONES] p_0/k_B:  61.48691 [K], p_1: 3.26150 [A], shift/k_B:  -0.09910153 [K], tailcorrection: yes
  O_co2 -     C20 [LENNARD_JONES] p_0/k_B:  61.48691 [K], p_1: 3.26150 [A], shift/k_B:  -0.09910153 [K], tailcorrection: yes
  O_co2 -     C21 [LENNARD_JONES] p_0/k_B:  61.48691 [K], p_1: 3.26150 [A], shift/k_B:  -0.09910153 [K], tailcorrection: yes
  O_co2 -     C22 [LENNARD_JONES] p_0/k_B:  61.48691 [K], p_1: 3.26150 [A], shift/k_B:  -0.09910153 [K], tailcorrection: yes
  O_co2 -     C23 [LENNARD_JONES] p_0/k_B:  61.48691 [K], p_1: 3.26150 [A], shift/k_B:  -0.09910153 [K], tailcorrection: yes
  O_co2 -     C24 [LENNARD_JONES] p_0/k_B:  61.48691 [K], p_1: 3.26150 [A], shift/k_B:  -0.09910153 [K], tailcorrection: yes
  O_co2 -     C25 [LENNARD_JONES] p_0/k_B:  61.48691 [K], p_1: 3.26150 [A], shift/k_B:  -0.09910153 [K], tailcorrection: yes
  O_co2 -     C26 [LENNARD_JONES] p_0/k_B:  61.48691 [K], p_1: 3.26150 [A], shift/k_B:  -0.09910153 [K], tailcorrection: yes
  O_co2 -     C27 [LENNARD_JONES] p_0/k_B:  61.48691 [K], p_1: 3.26150 [A], shift/k_B:  -0.09910153 [K], tailcorrection: yes
  O_co2 -     C28 [LENNARD_JONES] p_0/k_B:  61.48691 [K], p_1: 3.26150 [A], shift/k_B:  -0.09910153 [K], tailcorrection: yes
  O_co2 -     C29 [LENNARD_JONES] p_0/k_B:  61.48691 [K], p_1: 3.26150 [A], shift/k_B:  -0.09910153 [K], tailcorrection: yes
  O_co2 -     F30 [LENNARD_JONES] p_0/k_B:  53.68602 [K], p_1: 3.07160 [A], shift/k_B:  -0.06038089 [K], tailcorrection: yes
  O_co2 -     F31 [LENNARD_JONES] p_0/k_B:  53.68602 [K], p_1: 3.07160 [A], shift/k_B:  -0.06038089 [K], tailcorrection: yes
  O_co2 -     F32 [LENNARD_JONES] p_0/k_B:  53.68602 [K], p_1: 3.07160 [A], shift/k_B:  -0.06038089 [K], tailcorrection: yes
  O_co2 -     F33 [LENNARD_JONES] p_0/k_B:  53.68602 [K], p_1: 3.07160 [A], shift/k_B:  -0.06038089 [K], tailcorrection: yes
  O_co2 -     F34 [LENNARD_JONES] p_0/k_B:  53.68602 [K], p_1: 3.07160 [A], shift/k_B:  -0.06038089 [K], tailcorrection: yes
  O_co2 -     F35 [LENNARD_JONES] p_0/k_B:  53.68602 [K], p_1: 3.07160 [A], shift/k_B:  -0.06038089 [K], tailcorrection: yes
  O_co2 -     H36 [LENNARD_JONES] p_0/k_B:  24.58181 [K], p_1: 2.94821 [A], shift/k_B:  -0.02161929 [K], tailcorrection: yes
  O_co2 -     H37 [LENNARD_JONES] p_0/k_B:  24.58181 [K], p_1: 2.94821 [A], shift/k_B:  -0.02161929 [K], tailcorrection: yes
  O_co2 -     H38 [LENNARD_JONES] p_0/k_B:  24.58181 [K], p_1: 2.94821 [A], shift/k_B:  -0.02161929 [K], tailcorrection: yes
  O_co2 -     H39 [LENNARD_JONES] p_0/k_B:  24.58181 [K], p_1: 2.94821 [A], shift/k_B:  -0.02161929 [K], tailcorrection: yes
  O_co2 -     H40 [LENNARD_JONES] p_0/k_B:  24.58181 [K], p_1: 2.94821 [A], shift/k_B:  -0.02161929 [K], tailcorrection: yes
  O_co2 -     H41 [LENNARD_JONES] p_0/k_B:  24.58181 [K], p_1: 2.94821 [A], shift/k_B:  -0.02161929 [K], tailcorrection: yes
  O_co2 -     H42 [LENNARD_JONES] p_0/k_B:  24.58181 [K], p_1: 2.94821 [A], shift/k_B:  -0.02161929 [K], tailcorrection: yes
  O_co2 -     H43 [LENNARD_JONES] p_0/k_B:  24.58181 [K], p_1: 2.94821 [A], shift/k_B:  -0.02161929 [K], tailcorrection: yes
  O_co2 -     N46 [LENNARD_JONES] p_0/k_B:  55.47059 [K], p_1: 3.15628 [A], shift/k_B:  -0.07344203 [K], tailcorrection: yes
  O_co2 -     N47 [LENNARD_JONES] p_0/k_B:  55.47059 [K], p_1: 3.15628 [A], shift/k_B:  -0.07344203 [K], tailcorrection: yes
  O_co2 -     O48 [LENNARD_JONES] p_0/k_B:  61.68055 [K], p_1: 3.04157 [A], shift/k_B:  -0.06540286 [K], tailcorrection: yes
  O_co2 -     O49 [LENNARD_JONES] p_0/k_B:  61.68055 [K], p_1: 3.04157 [A], shift/k_B:  -0.06540286 [K], tailcorrection: yes
  O_co2 -     O50 [LENNARD_JONES] p_0/k_B:  61.68055 [K], p_1: 3.04157 [A], shift/k_B:  -0.06540286 [K], tailcorrection: yes
  O_co2 -     O51 [LENNARD_JONES] p_0/k_B:  61.68055 [K], p_1: 3.04157 [A], shift/k_B:  -0.06540286 [K], tailcorrection: yes
  O_co2 -     O52 [LENNARD_JONES] p_0/k_B:  61.68055 [K], p_1: 3.04157 [A], shift/k_B:  -0.06540286 [K], tailcorrection: yes
  O_co2 -     O53 [LENNARD_JONES] p_0/k_B:  61.68055 [K], p_1: 3.04157 [A], shift/k_B:  -0.06540286 [K], tailcorrection: yes
  O_co2 -     O54 [LENNARD_JONES] p_0/k_B:  61.68055 [K], p_1: 3.04157 [A], shift/k_B:  -0.06540286 [K], tailcorrection: yes
  O_co2 -     O55 [LENNARD_JONES] p_0/k_B:  61.68055 [K], p_1: 3.04157 [A], shift/k_B:  -0.06540286 [K], tailcorrection: yes
  O_co2 -    Zn56 [LENNARD_JONES] p_0/k_B:  70.21066 [K], p_1: 2.75577 [A], shift/k_B:  -0.04118835 [K], tailcorrection: yes
  O_co2 -    Zn57 [LENNARD_JONES] p_0/k_B:  70.21066 [K], p_1: 2.75577 [A], shift/k_B:  -0.04118835 [K], tailcorrection: yes
   N_n2 -    N_n2 [LENNARD_JONES] p_0/k_B:  36.00000 [K], p_1: 3.31000 [A], shift/k_B:  -0.06339451 [K], tailcorrection: yes
   N_n2 -   N_com [ZERO_POTENTIAL]
   N_n2 -   N_nh3 [LENNARD_JONES] p_0/k_B:  81.60882 [K], p_1: 3.36500 [A], shift/k_B:  -0.15863859 [K], tailcorrection: yes
   N_n2 -   H_nh3 [LENNARD_JONES] p_0/k_B:   0.00000 [K], p_1: 1.65500 [A], shift/k_B:  -0.00000000 [K], tailcorrection: yes
   N_n2 -      C0 [LENNARD_JONES] p_0/k_B:  41.50691 [K], p_1: 3.39149 [A], shift/k_B:  -0.08457044 [K], tailcorrection: yes
   N_n2 -      C1 [LENNARD_JONES] p_0/k_B:  41.50691 [K], p_1: 3.39149 [A], shift/k_B:  -0.08457044 [K], tailcorrection: yes
   N_n2 -      C2 [LENNARD_JONES] p_0/k_B:  41.50691 [K], p_1: 3.39149 [A], shift/k_B:  -0.08457044 [K], tailcorrection: yes
   N_n2 -      C3 [LENNARD_JONES] p_0/k_B:  41.50691 [K], p_1: 3.39149 [A], shift/k_B:  -0.08457044 [K], tailcorrection: yes
   N_n2 -      C4 [LENNARD_JONES] p_0/k_B:  41.50691 [K], p_1: 3.39149 [A], shift/k_B:  -0.08457044 [K], tailcorrection: yes
   N_n2 -      C5 [LENNARD_JONES] p_0/k_B:  41.50691 [K], p_1: 3.39149 [A], shift/k_B:  -0.08457044 [K], tailcorrection: yes
   N_n2 -      C6 [LENNARD_JONES] p_0/k_B:  41.50691 [K], p_1: 3.39149 [A], shift/k_B:  -0.08457044 [K], tailcorrection: yes
   N_n2 -      C7 [LENNARD_JONES] p_0/k_B:  41.50691 [K], p_1: 3.39149 [A], shift/k_B:  -0.08457044 [K], tailcorrection: yes
   N_n2 -      C8 [LENNARD_JONES] p_0/k_B:  41.50691 [K], p_1: 3.39149 [A], shift/k_B:  -0.08457044 [K], tailcorrection: yes
   N_n2 -      C9 [LENNARD_JONES] p_0/k_B:  41.50691 [K], p_1: 3.39149 [A], shift/k_B:  -0.08457044 [K], tailcorrection: yes
   N_n2 -     C10 [LENNARD_JONES] p_0/k_B:  41.50691 [K], p_1: 3.39149 [A], shift/k_B:  -0.08457044 [K], tailcorrection: yes
   N_n2 -     C11 [LENNARD_JONES] p_0/k_B:  41.50691 [K], p_1: 3.39149 [A], shift/k_B:  -0.08457044 [K], tailcorrection: yes
   N_n2 -     C12 [LENNARD_JONES] p_0/k_B:  41.50691 [K], p_1: 3.39149 [A], shift/k_B:  -0.08457044 [K], tailcorrection: yes
   N_n2 -     C13 [LENNARD_JONES] p_0/k_B:  41.50691 [K], p_1: 3.39149 [A], shift/k_B:  -0.08457044 [K], tailcorrection: yes
   N_n2 -     C14 [LENNARD_JONES] p_0/k_B:  41.50691 [K], p_1: 3.39149 [A], shift/k_B:  -0.08457044 [K], tailcorrection: yes
   N_n2 -     C15 [LENNARD_JONES] p_0/k_B:  41.50691 [K], p_1: 3.39149 [A], shift/k_B:  -0.08457044 [K], tailcorrection: yes
   N_n2 -     C16 [LENNARD_JONES] p_0/k_B:  41.50691 [K], p_1: 3.39149 [A], shift/k_B:  -0.08457044 [K], tailcorrection: yes
   N_n2 -     C17 [LENNARD_JONES] p_0/k_B:  41.50691 [K], p_1: 3.39149 [A], shift/k_B:  -0.08457044 [K], tailcorrection: yes
   N_n2 -     C18 [LENNARD_JONES] p_0/k_B:  41.50691 [K], p_1: 3.39149 [A], shift/k_B:  -0.08457044 [K], tailcorrection: yes
   N_n2 -     C19 [LENNARD_JONES] p_0/k_B:  41.50691 [K], p_1: 3.39149 [A], shift/k_B:  -0.08457044 [K], tailcorrection: yes
[...]
	Average              0.00000 [K] +/-            0.00000 [K]

Average Cation Improper Torsion energy:
=======================================
	Block[ 0]            0.00000 [K]
	Block[ 1]            0.00000 [K]
	Block[ 2]            0.00000 [K]
	Block[ 3]            0.00000 [K]
	Block[ 4]            0.00000 [K]
	------------------------------------------------------------------------------
	Average              0.00000 [K] +/-            0.00000 [K]

Average Cation Bond-Bond cross term energy:
=================================================
	Block[ 0]            0.00000 [K]
	Block[ 1]            0.00000 [K]
	Block[ 2]            0.00000 [K]
	Block[ 3]            0.00000 [K]
	Block[ 4]            0.00000 [K]
	------------------------------------------------------------------------------
	Average              0.00000 [K] +/-            0.00000 [K]

Average Cation Bend-Bend cross term energy:
===========================================
	Block[ 0]            0.00000 [K]
	Block[ 1]            0.00000 [K]
	Block[ 2]            0.00000 [K]
	Block[ 3]            0.00000 [K]
	Block[ 4]            0.00000 [K]
	------------------------------------------------------------------------------
	Average              0.00000 [K] +/-            0.00000 [K]

Average Cation Bond-Bend cross term energy:
==============================================
	Block[ 0]            0.00000 [K]
	Block[ 1]            0.00000 [K]
	Block[ 2]            0.00000 [K]
	Block[ 3]            0.00000 [K]
	Block[ 4]            0.00000 [K]
	------------------------------------------------------------------------------
	Average              0.00000 [K] +/-            0.00000 [K]

Average Cation Bond-Torsion cross term energy:
==============================================
	Block[ 0]            0.00000 [K]
	Block[ 1]            0.00000 [K]
	Block[ 2]            0.00000 [K]
	Block[ 3]            0.00000 [K]
	Block[ 4]            0.00000 [K]
	------------------------------------------------------------------------------
	Average              0.00000 [K] +/-            0.00000 [K]

Average Cation Bend-Torsion cross term energy:
==============================================
	Block[ 0]            0.00000 [K]
	Block[ 1]            0.00000 [K]
	Block[ 2]            0.00000 [K]
	Block[ 3]            0.00000 [K]
	Block[ 4]            0.00000 [K]
	------------------------------------------------------------------------------
	Average              0.00000 [K] +/-            0.00000 [K]

Average Cation Intra Van der Waals energy:
==========================================
	Block[ 0]            0.00000 [K]
	Block[ 1]            0.00000 [K]
	Block[ 2]            0.00000 [K]
	Block[ 3]            0.00000 [K]
	Block[ 4]            0.00000 [K]
	------------------------------------------------------------------------------
	Average              0.00000 [K] +/-            0.00000 [K]

Average Cation Intra charge-charge Coulomb energy:
====================================
	Block[ 0]            0.00000 [K]
	Block[ 1]            0.00000 [K]
	Block[ 2]            0.00000 [K]
	Block[ 3]            0.00000 [K]
	Block[ 4]            0.00000 [K]
	------------------------------------------------------------------------------
	Average              0.00000 [K] +/-            0.00000 [K]

Average Cation Intra charge-bonddipole Coulomb energy:
====================================
	Block[ 0]            0.00000 [K]
	Block[ 1]            0.00000 [K]
	Block[ 2]            0.00000 [K]
	Block[ 3]            0.00000 [K]
	Block[ 4]            0.00000 [K]
	------------------------------------------------------------------------------
	Average              0.00000 [K] +/-            0.00000 [K]

Average Cation Intra bonddipole-bonddipole Coulomb energy:
====================================
	Block[ 0]            0.00000 [K]
	Block[ 1]            0.00000 [K]
	Block[ 2]            0.00000 [K]
	Block[ 3]            0.00000 [K]
	Block[ 4]            0.00000 [K]
	------------------------------------------------------------------------------
	Average              0.00000 [K] +/-            0.00000 [K]

Average Host-Host energy:
=========================
	Block[ 0] 0.00000            Van der Waals: 0.00000            Coulomb: 0.00000            [K]
	Block[ 1] 0.00000            Van der Waals: 0.00000            Coulomb: 0.00000            [K]
	Block[ 2] 0.00000            Van der Waals: 0.00000            Coulomb: 0.00000            [K]
	Block[ 3] 0.00000            Van der Waals: 0.00000            Coulomb: 0.00000            [K]
	Block[ 4] 0.00000            Van der Waals: 0.00000            Coulomb: 0.00000            [K]
	------------------------------------------------------------------------------
	Average   0.00000            Van der Waals: 0.000000           Coulomb: 0.00000            [K]
	      +/- 0.00000                       +/- 0.000000                +/- 0.00000            [K]

Average Adsorbate-Adsorbate energy:
===================================
	Block[ 0] -9676.29608        Van der Waals: -3985.52544        Coulomb: -5690.77064        [K]
	Block[ 1] -8860.55633        Van der Waals: -3731.02280        Coulomb: -5129.53353        [K]
	Block[ 2] -9758.72514        Van der Waals: -4016.10925        Coulomb: -5742.61590        [K]
	Block[ 3] -9601.37587        Van der Waals: -3865.97208        Coulomb: -5735.40379        [K]
	Block[ 4] -9876.26185        Van der Waals: -4035.88990        Coulomb: -5840.37195        [K]
	------------------------------------------------------------------------------
	Average   -9554.64306        Van der Waals: -3926.903895       Coulomb: -5627.73916        [K]
	      +/- 498.06884                     +/- 158.686851              +/- 352.33492          [K]

Average Cation-Cation energy:
=============================
	Block[ 0] 0.00000            Van der Waals: 0.00000            Coulomb: 0.00000            [K]
	Block[ 1] 0.00000            Van der Waals: 0.00000            Coulomb: 0.00000            [K]
	Block[ 2] 0.00000            Van der Waals: 0.00000            Coulomb: 0.00000            [K]
	Block[ 3] 0.00000            Van der Waals: 0.00000            Coulomb: 0.00000            [K]
	Block[ 4] 0.00000            Van der Waals: 0.00000            Coulomb: 0.00000            [K]
	------------------------------------------------------------------------------
	Average   0.00000            Van der Waals: 0.000000           Coulomb: 0.00000            [K]
	      +/- 0.00000                       +/- 0.000000                +/- 0.00000            [K]

Average Host-Adsorbate energy:
==============================
	Block[ 0] -139563.69776      Van der Waals: -42800.88740       Coulomb: -96762.81036       [K]
	Block[ 1] -132433.67162      Van der Waals: -42907.79871       Coulomb: -89525.87291       [K]
	Block[ 2] -143440.27964      Van der Waals: -45076.21679       Coulomb: -98364.06285       [K]
	Block[ 3] -136076.43591      Van der Waals: -44921.56702       Coulomb: -91154.86889       [K]
	Block[ 4] -141117.41209      Van der Waals: -42639.94299       Coulomb: -98477.46909       [K]
	------------------------------------------------------------------------------
	Average   -138526.29940      Van der Waals: -43669.282582      Coulomb: -94857.01682       [K]
	      +/- 5377.82231                    +/- 1513.007615             +/- 5236.49891         [K]

Average Host-Cation energy:
===========================
	Block[ 0] 0.00000            Van der Waals: 0.00000            Coulomb: 0.00000            [K]
	Block[ 1] 0.00000            Van der Waals: 0.00000            Coulomb: 0.00000            [K]
	Block[ 2] 0.00000            Van der Waals: 0.00000            Coulomb: 0.00000            [K]
	Block[ 3] 0.00000            Van der Waals: 0.00000            Coulomb: 0.00000            [K]
	Block[ 4] 0.00000            Van der Waals: 0.00000            Coulomb: 0.00000            [K]
	------------------------------------------------------------------------------
	Average   0.00000            Van der Waals: 0.000000           Coulomb: 0.00000            [K]
	      +/- 0.00000                       +/- 0.000000                +/- 0.00000            [K]

Average Adsorbate-Cation energy:
================================
	Block[ 0] 0.00000            Van der Waals: 0.00000            Coulomb: 0.00000            [K]
	Block[ 1] 0.00000            Van der Waals: 0.00000            Coulomb: 0.00000            [K]
	Block[ 2] 0.00000            Van der Waals: 0.00000            Coulomb: 0.00000            [K]
	Block[ 3] 0.00000            Van der Waals: 0.00000            Coulomb: 0.00000            [K]
	Block[ 4] 0.00000            Van der Waals: 0.00000            Coulomb: 0.00000            [K]
	------------------------------------------------------------------------------
	Average   0.00000            Van der Waals: 0.000000           Coulomb: 0.00000            [K]
	      +/- 0.00000                       +/- 0.000000                +/- 0.00000            [K]

Host polarization energy:
=======================
	Block[ 0]            0.00000 [K]
	Block[ 1]            0.00000 [K]
	Block[ 2]            0.00000 [K]
	Block[ 3]            0.00000 [K]
	Block[ 4]            0.00000 [K]
	------------------------------------------------------------------------------
	Average              0.00000 [K] +/-            0.00000 [K]

Adsorbate polarization energy:
=======================
	Block[ 0]            0.00000 [K]
	Block[ 1]            0.00000 [K]
	Block[ 2]            0.00000 [K]
	Block[ 3]            0.00000 [K]
	Block[ 4]            0.00000 [K]
	------------------------------------------------------------------------------
	Average              0.00000 [K] +/-            0.00000 [K]

Cation polarization energy:
=======================
	Block[ 0]            0.00000 [K]
	Block[ 1]            0.00000 [K]
	Block[ 2]            0.00000 [K]
	Block[ 3]            0.00000 [K]
	Block[ 4]            0.00000 [K]
	------------------------------------------------------------------------------
	Average              0.00000 [K] +/-            0.00000 [K]

Host back-polarization energy:
=======================
	Block[ 0]            0.00000 [K]
	Block[ 1]            0.00000 [K]
	Block[ 2]            0.00000 [K]
	Block[ 3]            0.00000 [K]
	Block[ 4]            0.00000 [K]
	------------------------------------------------------------------------------
	Average              0.00000 [K] +/-            0.00000 [K]

Adsorbate back-polarization energy:
=======================
	Block[ 0]            0.00000 [K]
	Block[ 1]            0.00000 [K]
	Block[ 2]            0.00000 [K]
	Block[ 3]            0.00000 [K]
	Block[ 4]            0.00000 [K]
	------------------------------------------------------------------------------
	Average              0.00000 [K] +/-            0.00000 [K]

Cation back-polarization energy:
=======================
	Block[ 0]            0.00000 [K]
	Block[ 1]            0.00000 [K]
	Block[ 2]            0.00000 [K]
	Block[ 3]            0.00000 [K]
	Block[ 4]            0.00000 [K]
	------------------------------------------------------------------------------
	Average              0.00000 [K] +/-            0.00000 [K]

Tail-correction energy:
=======================
	Block[ 0]        -8182.41678 [K]
	Block[ 1]        -8133.14808 [K]
	Block[ 2]        -8247.26062 [K]
	Block[ 3]        -8177.46672 [K]
	Block[ 4]        -8186.63640 [K]
	------------------------------------------------------------------------------
	Average          -8185.38572 [K] +/-           50.54441 [K]

Distance-constraints energy:
=======================
	Block[ 0]            0.00000 [K]
	Block[ 1]            0.00000 [K]
	Block[ 2]            0.00000 [K]
	Block[ 3]            0.00000 [K]
	Block[ 4]            0.00000 [K]
	------------------------------------------------------------------------------
	Average              0.00000 [K] +/-            0.00000 [K]

Angle-constraints energy:
=======================
	Block[ 0]            0.00000 [K]
	Block[ 1]            0.00000 [K]
	Block[ 2]            0.00000 [K]
	Block[ 3]            0.00000 [K]
	Block[ 4]            0.00000 [K]
	------------------------------------------------------------------------------
	Average              0.00000 [K] +/-            0.00000 [K]

Dihedral-constraints energy:
=======================
	Block[ 0]            0.00000 [K]
	Block[ 1]            0.00000 [K]
	Block[ 2]            0.00000 [K]
	Block[ 3]            0.00000 [K]
	Block[ 4]            0.00000 [K]
	------------------------------------------------------------------------------
	Average              0.00000 [K] +/-            0.00000 [K]

Inversion-bend constraints energy:
=======================
	Block[ 0]            0.00000 [K]
	Block[ 1]            0.00000 [K]
	Block[ 2]            0.00000 [K]
	Block[ 3]            0.00000 [K]
	Block[ 4]            0.00000 [K]
	------------------------------------------------------------------------------
	Average              0.00000 [K] +/-            0.00000 [K]

Out-of-plane-distance constraints energy:
=======================
	Block[ 0]            0.00000 [K]
	Block[ 1]            0.00000 [K]
	Block[ 2]            0.00000 [K]
	Block[ 3]            0.00000 [K]
	Block[ 4]            0.00000 [K]
	------------------------------------------------------------------------------
	Average              0.00000 [K] +/-            0.00000 [K]

Exclusion-constraints energy:
=======================
	Block[ 0]            0.00000 [K]
	Block[ 1]            0.00000 [K]
	Block[ 2]            0.00000 [K]
	Block[ 3]            0.00000 [K]
	Block[ 4]            0.00000 [K]
	------------------------------------------------------------------------------
	Average              0.00000 [K] +/-            0.00000 [K]

Total energy:
=============
	Block[ 0]      -157422.41063 [K]
	Block[ 1]      -149427.37603 [K]
	Block[ 2]      -161446.26540 [K]
	Block[ 3]      -153855.27850 [K]
	Block[ 4]      -159180.31034 [K]
	------------------------------------------------------------------------------
	Average        -156266.32818 [K] +/-         5864.00006 [K]

Number of molecules:
====================

Component 0 [NH3]
-------------------------------------------------------------
	Block[ 0] 57.29450           [-]
	Block[ 1] 55.85750           [-]
	Block[ 2] 59.15850           [-]
	Block[ 3] 57.14000           [-]
	Block[ 4] 57.39950           [-]
	------------------------------------------------------------------------------
	Average loading absolute                             57.3700000000 +/-       1.4618030908 [-]
	Average loading absolute [molecules/unit cell]        3.1872222222 +/-       0.0812112828 [-]
	Average loading absolute [mol/kg framework]                  3.1155305303 +/-       0.0793845592 [-]
	Average loading absolute [milligram/gram framework]         53.0592296274 +/-       1.3519634977 [-]
	Average loading absolute [cm^3 (STP)/gr framework]          69.8314257461 +/-       1.7793235836 [-]
	Average loading absolute [cm^3 (STP)/cm^3 framework]        54.5441040710 +/-       1.3897984995 [-]

	Block[ 0] 56.32226           [-]
	Block[ 1] 54.88526           [-]
	Block[ 2] 58.18626           [-]
	Block[ 3] 56.16776           [-]
	Block[ 4] 56.42726           [-]
	------------------------------------------------------------------------------
	Average loading excess                             56.3977589357 +/-       1.4618030908 [-]
	Average loading excess [molecules/unit cell]        3.1332088298 +/-       0.0812112828 [-]
	Average loading excess [mol/kg framework]                    3.0627320865 +/-       0.0793845592 [-]
	Average loading excess [milligram/gram framework]           52.1600425630 +/-       1.3519634977 [-]
	Average loading excess [cm^3 (STP)/gr framework]            68.6480027081 +/-       1.7793235836 [-]
	Average loading excess [cm^3 (STP)/cm^3 framework]          53.6197530549 +/-       1.3897984995 [-]


Average Widom Rosenbluth factor:
================================
	Block[ 0] 0 [-]
	Block[ 1] 0 [-]
	Block[ 2] 0 [-]
	Block[ 3] 0 [-]
	Block[ 4] 0 [-]
	------------------------------------------------------------------------------
	[NH3] Average Widom Rosenbluth-weight:   0 +/- 0.000000 [-]

Average Widom chemical potential:
=================================
	Block[ 0] 0 [-]
	Block[ 1] 0 [-]
	Block[ 2] 0 [-]
	Block[ 3] 0 [-]
	Block[ 4] 0 [-]
	------------------------------------------------------------------------------
	[NH3] Average chemical potential:   0 +/- 0.000000 [K]

Average Widom Ideal-gas contribution:
=====================================
	Block[ 0] 0 [-]
	Block[ 1] 0 [-]
	Block[ 2] 0 [-]
	Block[ 3] 0 [-]
	Block[ 4] 0 [-]
	------------------------------------------------------------------------------
	[NH3] Average Widom Ideal-gas chemical potential:   0 +/- 0.000000 [-]

Average Widom excess contribution:
==================================
	Block[ 0] 0 [-]
	Block[ 1] 0 [-]
	Block[ 2] 0 [-]
	Block[ 3] 0 [-]
	Block[ 4] 0 [-]
	------------------------------------------------------------------------------
	[NH3] Average Widom excess chemical potential:   0 +/- 0.000000 [-]

Average Gibbs Widom Rosenbluth factor:
======================================
	Block[ 0] 0 [-]
	Block[ 1] 0 [-]
	Block[ 2] 0 [-]
	Block[ 3] 0 [-]
	Block[ 4] 0 [-]
	------------------------------------------------------------------------------
	[NH3] Average Gibbs Widom Rosenbluth-weight:   0 +/- 0.000000 [-]

Average Gibbs Widom chemical potential:
=======================================
	Block[ 0] 0 [-]
	Block[ 1] 0 [-]
	Block[ 2] 0 [-]
	Block[ 3] 0 [-]
	Block[ 4] 0 [-]
	------------------------------------------------------------------------------
	[NH3] Average Gibbs chemical potential:   0 +/- 0.000000 [K]

Average osmostat calibration for alchemical transformation:
=======================================
	Block[ 0] 0 [-]
	Block[ 1] 0 [-]
	Block[ 2] 0 [-]
	Block[ 3] 0 [-]
	Block[ 4] 0 [-]
	------------------------------------------------------------------------------
	Average osmostat calibration for alchemical transformation:   0 +/- 0.000000 [K]
	Average osmostat calibration for alchemical transformation:   0 +/- 0.000000 [kJ/mol]

Average Gibbs Widom Ideal-gas contribution:
===========================================
	Block[ 0] 0 [-]
	Block[ 1] 0 [-]
	Block[ 2] 0 [-]
	Block[ 3] 0 [-]
	Block[ 4] 0 [-]
	------------------------------------------------------------------------------
	[NH3] Average Gibbs Ideal-gas chemical potential:   0 +/- 0.000000 [-]

Average Gibbs Widom excess contribution:
===========================================
	Block[ 0] 0 [-]
	Block[ 1] 0 [-]
	Block[ 2] 0 [-]
	Block[ 3] 0 [-]
	Block[ 4] 0 [-]
	------------------------------------------------------------------------------
	[NH3] Average Gibbs excess chemical potential:   0 +/- 0.000000 [-]

Average Henry coefficient:
==========================
	Block[ 0] 0 [mol/kg/Pa]
	Block[ 1] 0 [mol/kg/Pa]
	Block[ 2] 0 [mol/kg/Pa]
	Block[ 3] 0 [mol/kg/Pa]
	Block[ 4] 0 [mol/kg/Pa]
	------------------------------------------------------------------------------
	[NH3] Average Henry coefficient:  0 +/- 0 [mol/kg/Pa]

Average adsorption energy <U_gh>_1-<U_h>_0 obtained from Widom-insertion:
(Note: the total heat of adsorption is dH=<U_gh>_1-<U_h>_0 - <U_g> - RT)
=========================================================================

Simulation finished,  1 warnings
WARNING: THERE ARE ATOM-PAIRS WITH NO VDW INTERACTION N_nh3-I44 N_nh3-I45 H_nh3-I44 H_nh3-I45 C0-I44 C0-I45 C1-I44 C1-I45 C2-I44 C2-I45 C3-I44 C3-I45 C4-I44 C4-I45 C5-I44 C5-I45 C6-I44 C6-I45 C7-I44 C7-I45 C8-I44 C8-I45 C9-I44 C9-I45 C10-I44 C10-I45 C11-I44 C11-I45 C12-I44 C12-I45 C13-I44 C13-I45 C14-I44 C14-I45 C15-I44 C15-I45 C16-I44 C16-I45 C17-I44 C17-I45 C18-I44 C18-I45 C19-I44 C19-I45 C20-I44 C20-I45 C21-I44 C21-I45 C22-I44 C22-I45  (maximum 50 interactions shown)


Thu Feb  5 22:33:25 2026
Simulation finished on Thursday, February 05.
The end time was 10:33 PM.

