# vtk DataFile Version 1.0
Cube
ASCII

DATASET POLYDATA
POINTS 480 float
7.899599 10.066494 1.631231
9.586566 11.635627 3.625852
10.251826 11.118860 12.709231
7.785669 10.013005 6.698057
9.838878 10.641371 11.354218
9.817020 8.886603 9.654682
10.161465 9.339869 10.939242
9.127429 11.475333 10.467349
8.625438 10.969436 9.238279
9.042914 9.691000 8.789091
8.666392 9.248614 7.491394
7.235756 11.183456 7.239320
7.684899 11.685695 8.463347
7.375099 9.558394 5.341975
9.438240 7.484735 3.321710
8.382189 1.653548 1.917619
7.901129 7.209243 1.486122
9.930108 1.928790 3.744193
9.308448 8.880683 3.192472
8.511448 0.257564 2.047004
7.785453 8.609967 1.400968
10.045819 0.528029 3.828823
8.731895 6.630942 2.459339
9.093744 2.507315 2.775905
8.859709 5.175351 2.571005
8.966243 3.962935 2.664257
0.439295 9.674049 3.194440
5.884815 12.050956 2.013038
4.717100 11.262635 1.774038
1.639998 10.427767 3.470713
3.877281 11.071729 2.798475
2.664777 10.318071 2.611503
8.485722 9.421628 2.246562
9.057288 12.243798 2.988806
5.884425 11.985636 6.462272
9.287684 0.655652 10.840064
0.296654 -0.537799 12.764077
9.547212 11.565821 0.937417
8.010407 10.073266 4.305078
6.351952 8.739018 5.283345
0.574546 8.626264 2.508367
6.022910 0.554904 2.722508
10.530653 10.137821 3.500270
7.010691 11.570774 1.730602
9.140463 8.075494 6.999888
10.206484 7.640305 9.282807
7.386691 0.294403 8.929170
10.858745 8.519598 11.764952
10.251825 6.971971 4.279689
7.564666 2.166580 0.963258
7.204595 6.424432 0.624919
10.632530 2.713429 4.600834
10.013039 9.694977 4.014871
7.520914 11.970765 1.228382
6.969464 9.156811 0.467396
10.870045 -0.018652 4.755132
2.574427 9.534082 1.499636
4.165920 11.554962 4.042151
1.669850 11.285755 4.526665
4.519514 10.726090 0.538699
7.929292 9.151527 14.439558
9.616259 10.720661 16.434179
10.281520 10.203894 25.517557
7.815363 9.098039 19.506384
9.868571 9.726405 24.162545
9.846713 7.971637 22.463009
10.191158 8.424903 23.747569
9.157122 10.560367 23.275676
8.655132 10.054470 22.046606
9.072608 8.776033 21.597418
8.696085 8.333647 20.299720
7.265450 10.268489 20.047647
7.714593 10.770728 21.271673
7.404792 8.643427 18.150302
9.467934 6.569768 16.130037
8.411882 0.738581 14.725946
7.930823 6.294277 14.294449
9.959801 1.013823 16.552520
9.338141 7.965717 16.000799
8.541141 -0.657402 14.855331
7.815146 7.695000 14.209295
10.075512 -0.386937 16.637150
8.761588 5.715975 15.267666
9.123437 1.592349 15.584232
8.889402 4.260384 15.379332
8.995937 3.047968 15.472583
0.468989 8.759082 16.002767
5.914508 11.135989 14.821365
4.746793 10.347669 14.582365
1.669691 9.512800 16.279040
3.906974 10.156762 15.606802
2.694470 9.403105 15.419830
8.515415 8.506661 15.054889
9.086981 11.328832 15.797133
5.914118 11.070670 19.270598
9.317377 -0.259314 23.648391
0.326348 -1.452766 25.572403
9.576905 10.650855 13.745744
8.040100 9.158299 17.113405
6.381646 7.824052 18.091671
0.604239 7.711298 15.316694
6.052604 -0.360063 15.530834
10.560346 9.222854 16.308597
7.040384 10.655808 14.538929
9.170156 7.160527 19.808215
10.236177 6.725338 22.091134
7.416385 -0.620563 21.737497
10.888438 7.604631 24.573279
10.281519 6.057005 17.088016
7.594359 1.251613 13.771584
7.234288 5.509466 13.433246
10.662223 1.798462 17.409161
10.042733 8.780011 16.823198
7.550607 11.055799 14.036708
6.999157 8.241845 13.275723
10.899738 -0.933619 17.563459
2.604120 8.619115 14.307963
4.195613 10.639995 16.850478
1.699543 10.370788 17.334992
4.549207 9.811123 13.347026
7.618114 22.593922 1.631231
9.305081 24.163055 3.625852
9.970342 23.646288 12.709231
7.504184 22.540433 6.698057
9.557393 23.168799 11.354218
9.535535 21.414031 9.654682
9.879980 21.867297 10.939242
8.845944 24.002761 10.467349
8.343953 23.496864 9.238279
8.761429 22.218428 8.789091
8.384907 21.776042 7.491394
6.954272 23.710884 7.239320
7.403415 24.213123 8.463347
7.093614 22.085822 5.341975
9.156755 20.012163 3.321710
8.100704 14.180976 1.917619
7.619644 19.736671 1.486122
9.648623 14.456218 3.744193
9.026963 21.408111 3.192472
8.229963 12.784992 2.047004
7.503968 21.137395 1.400968
9.764334 13.055457 3.828823
8.450410 19.158370 2.459339
8.812259 15.034743 2.775905
8.578224 17.702779 2.571005
8.684758 16.490363 2.664257
0.157810 22.201477 3.194440
5.603330 24.578384 2.013038
4.435615 23.790063 1.774038
1.358513 22.955195 3.470713
3.595796 23.599157 2.798475
2.383292 22.845499 2.611503
8.204237 21.949056 2.246562
8.775803 24.771226 2.988806
5.602940 24.513064 6.462272
9.006199 13.183080 10.840064
0.015169 11.989629 12.764077
9.265727 24.093249 0.937417
7.728922 22.600694 4.305078
6.070467 21.266446 5.283345
0.293061 21.153692 2.508367
5.741426 13.082332 2.722508
10.249168 22.665249 3.500270
6.729206 24.098202 1.730602
8.858978 20.602922 6.999888
9.924999 20.167733 9.282807
7.105206 12.821831 8.929170
10.577260 21.047026 11.764952
9.970340 19.499399 4.279689
7.283181 14.694008 0.963258
6.923110 18.951860 0.624919
10.351045 15.240857 4.600834
9.731555 22.222405 4.014871
7.239429 24.498193 1.228382
6.687979 21.684239 0.467396
10.588560 12.508776 4.755132
2.292942 22.061510 1.499636
3.884435 24.082390 4.042151
1.388365 23.813183 4.526665
4.238029 23.253518 0.538699
7.647807 21.678955 14.439558
9.334774 23.248089 16.434179
10.000035 22.731322 25.517557
7.533878 21.625467 19.506384
9.587086 22.253833 24.162545
9.565228 20.499065 22.463009
9.909673 20.952331 23.747569
8.875637 23.087795 23.275676
8.373647 22.581898 22.046606
8.791123 21.303461 21.597418
8.414600 20.861075 20.299720
6.983965 22.795917 20.047647
7.433108 23.298156 21.271673
7.123307 21.170855 18.150302
9.186449 19.097196 16.130037
8.130397 13.266009 14.725946
7.649338 18.821705 14.294449
9.678316 13.541251 16.552520
9.056656 20.493145 16.000799
8.259656 11.870026 14.855331
7.533661 20.222428 14.209295
9.794028 12.140491 16.637150
8.480103 18.243403 15.267666
8.841953 14.119777 15.584232
8.607917 16.787812 15.379332
8.714452 15.575396 15.472583
0.187504 21.286510 16.002767
5.633023 23.663417 14.821365
4.465308 22.875097 14.582365
1.388206 22.040228 16.279040
3.625490 22.684190 15.606802
2.412986 21.930533 15.419830
8.233931 21.034089 15.054889
8.805496 23.856260 15.797133
5.632634 23.598098 19.270598
9.035892 12.268114 23.648391
0.044863 11.074662 25.572403
9.295420 23.178283 13.745744
7.758615 21.685727 17.113405
6.100161 20.351480 18.091671
0.322754 20.238726 15.316694
5.771119 12.167365 15.530834
10.278861 21.750282 16.308597
6.758899 23.183236 14.538929
8.888671 19.687955 19.808215
9.954693 19.252766 22.091134
7.134900 11.906865 21.737497
10.606953 20.132059 24.573279
10.000034 18.584433 17.088016
7.312874 13.779041 13.771584
6.952803 18.036894 13.433246
10.380738 14.325890 17.409161
9.761248 21.307439 16.823198
7.269122 23.583227 14.036708
6.717672 20.769273 13.275723
10.618253 11.593809 17.563459
2.322635 21.146543 14.307963
3.914128 23.167423 16.850478
1.418058 22.898216 17.334992
4.267722 22.338551 13.347026
19.124969 10.066494 1.631231
20.811936 11.635627 3.625852
21.477196 11.118860 12.709231
19.011039 10.013005 6.698057
21.064248 10.641371 11.354218
21.042390 8.886603 9.654682
21.386835 9.339869 10.939242
20.352799 11.475333 10.467349
19.850808 10.969436 9.238279
20.268284 9.691000 8.789091
19.891762 9.248614 7.491394
18.461126 11.183456 7.239320
18.910269 11.685695 8.463347
18.600469 9.558394 5.341975
20.663610 7.484735 3.321710
19.607559 1.653548 1.917619
19.126499 7.209243 1.486122
21.155478 1.928790 3.744193
20.533818 8.880683 3.192472
19.736818 0.257564 2.047004
19.010823 8.609967 1.400968
21.271189 0.528029 3.828823
19.957265 6.630942 2.459339
20.319114 2.507315 2.775905
20.085079 5.175351 2.571005
20.191613 3.962935 2.664257
11.664665 9.674049 3.194440
17.110185 12.050956 2.013038
15.942470 11.262635 1.774038
12.865368 10.427767 3.470713
15.102651 11.071729 2.798475
13.890147 10.318071 2.611503
19.711092 9.421628 2.246562
20.282658 12.243798 2.988806
17.109795 11.985636 6.462272
20.513054 0.655652 10.840064
11.522024 -0.537799 12.764077
20.772582 11.565821 0.937417
19.235777 10.073266 4.305078
17.577322 8.739018 5.283345
11.799916 8.626264 2.508367
17.248280 0.554904 2.722508
21.756023 10.137821 3.500270
18.236061 11.570774 1.730602
20.365833 8.075494 6.999888
21.431854 7.640305 9.282807
18.612061 0.294403 8.929170
22.084115 8.519598 11.764952
21.477195 6.971971 4.279689
18.790036 2.166580 0.963258
18.429965 6.424432 0.624919
21.857900 2.713429 4.600834
21.238409 9.694977 4.014871
18.746284 11.970765 1.228382
18.194834 9.156811 0.467396
22.095415 -0.018652 4.755132
13.799797 9.534082 1.499636
15.391290 11.554962 4.042151
12.895220 11.285755 4.526665
15.744884 10.726090 0.538699
19.154662 9.151527 14.439558
20.841629 10.720661 16.434179
21.506890 10.203894 25.517557
19.040733 9.098039 19.506384
21.093941 9.726405 24.162545
21.072083 7.971637 22.463009
21.416528 8.424903 23.747569
20.382492 10.560367 23.275676
19.880502 10.054470 22.046606
20.297978 8.776033 21.597418
19.921455 8.333647 20.299720
18.490820 10.268489 20.047647
18.939963 10.770728 21.271673
18.630162 8.643427 18.150302
20.693304 6.569768 16.130037
19.637252 0.738581 14.725946
19.156193 6.294277 14.294449
21.185171 1.013823 16.552520
20.563511 7.965717 16.000799
19.766511 -0.657402 14.855331
19.040516 7.695000 14.209295
21.300882 -0.386937 16.637150
19.986958 5.715975 15.267666
20.348807 1.592349 15.584232
20.114772 4.260384 15.379332
20.221307 3.047968 15.472583
11.694359 8.759082 16.002767
17.139878 11.135989 14.821365
15.972163 10.347669 14.582365
12.895061 9.512800 16.279040
15.132344 10.156762 15.606802
13.919840 9.403105 15.419830
19.740785 8.506661 15.054889
20.312351 11.328832 15.797133
17.139488 11.070670 19.270598
20.542747 -0.259314 23.648391
11.551718 -1.452766 25.572403
20.802275 10.650855 13.745744
19.265470 9.158299 17.113405
17.607016 7.824052 18.091671
11.829609 7.711298 15.316694
17.277974 -0.360063 15.530834
21.785716 9.222854 16.308597
18.265754 10.655808 14.538929
20.395526 7.160527 19.808215
21.461547 6.725338 22.091134
18.641755 -0.620563 21.737497
22.113808 7.604631 24.573279
21.506889 6.057005 17.088016
18.819729 1.251613 13.771584
18.459658 5.509466 13.433246
21.887593 1.798462 17.409161
21.268103 8.780011 16.823198
18.775977 11.055799 14.036708
18.224527 8.241845 13.275723
22.125108 -0.933619 17.563459
13.829490 8.619115 14.307963
15.420983 10.639995 16.850478
12.924913 10.370788 17.334992
15.774577 9.811123 13.347026
18.843484 22.593922 1.631231
20.530451 24.163055 3.625852
21.195712 23.646288 12.709231
18.729554 22.540433 6.698057
20.782763 23.168799 11.354218
20.760905 21.414031 9.654682
21.105350 21.867297 10.939242
20.071314 24.002761 10.467349
19.569323 23.496864 9.238279
19.986799 22.218428 8.789091
19.610277 21.776042 7.491394
18.179642 23.710884 7.239320
18.628785 24.213123 8.463347
18.318984 22.085822 5.341975
20.382125 20.012163 3.321710
19.326074 14.180976 1.917619
18.845014 19.736671 1.486122
20.873993 14.456218 3.744193
20.252333 21.408111 3.192472
19.455333 12.784992 2.047004
18.729338 21.137395 1.400968
20.989704 13.055457 3.828823
19.675780 19.158370 2.459339
20.037629 15.034743 2.775905
19.803594 17.702779 2.571005
19.910128 16.490363 2.664257
11.383180 22.201477 3.194440
16.828700 24.578384 2.013038
15.660985 23.790063 1.774038
12.583883 22.955195 3.470713
14.821166 23.599157 2.798475
13.608662 22.845499 2.611503
19.429607 21.949056 2.246562
20.001173 24.771226 2.988806
16.828310 24.513064 6.462272
20.231569 13.183080 10.840064
11.240539 11.989629 12.764077
20.491097 24.093249 0.937417
18.954292 22.600694 4.305078
17.295837 21.266446 5.283345
11.518431 21.153692 2.508367
16.966796 13.082332 2.722508
21.474538 22.665249 3.500270
17.954576 24.098202 1.730602
20.084348 20.602922 6.999888
21.150369 20.167733 9.282807
18.330576 12.821831 8.929170
21.802630 21.047026 11.764952
21.195710 19.499399 4.279689
18.508551 14.694008 0.963258
18.148480 18.951860 0.624919
21.576415 15.240857 4.600834
20.956925 22.222405 4.014871
18.464799 24.498193 1.228382
17.913349 21.684239 0.467396
21.813930 12.508776 4.755132
13.518312 22.061510 1.499636
15.109805 24.082390 4.042151
12.613735 23.813183 4.526665
15.463399 23.253518 0.538699
18.873177 21.678955 14.439558
20.560144 23.248089 16.434179
21.225405 22.731322 25.517557
18.759248 21.625467 19.506384
20.812456 22.253833 24.162545
20.790598 20.499065 22.463009
21.135043 20.952331 23.747569
20.101007 23.087795 23.275676
19.599017 22.581898 22.046606
20.016493 21.303461 21.597418
19.639970 20.861075 20.299720
18.209335 22.795917 20.047647
18.658478 23.298156 21.271673
18.348677 21.170855 18.150302
20.411819 19.097196 16.130037
19.355767 13.266009 14.725946
18.874708 18.821705 14.294449
20.903686 13.541251 16.552520
20.282026 20.493145 16.000799
19.485026 11.870026 14.855331
18.759031 20.222428 14.209295
21.019398 12.140491 16.637150
19.705473 18.243403 15.267666
20.067323 14.119777 15.584232
19.833287 16.787812 15.379332
19.939822 15.575396 15.472583
11.412874 21.286510 16.002767
16.858393 23.663417 14.821365
15.690678 22.875097 14.582365
12.613576 22.040228 16.279040
14.850860 22.684190 15.606802
13.638356 21.930533 15.419830
19.459301 21.034089 15.054889
20.030866 23.856260 15.797133
16.858004 23.598098 19.270598
20.261262 12.268114 23.648391
11.270233 11.074662 25.572403
20.520790 23.178283 13.745744
18.983985 21.685727 17.113405
17.325531 20.351480 18.091671
11.548124 20.238726 15.316694
16.996489 12.167365 15.530834
21.504231 21.750282 16.308597
17.984269 23.183236 14.538929
20.114041 19.687955 19.808215
21.180063 19.252766 22.091134
18.360270 11.906865 21.737497
21.832323 20.132059 24.573279
21.225404 18.584433 17.088016
18.538244 13.779041 13.771584
18.178173 18.036894 13.433246
21.606108 14.325890 17.409161
20.986618 21.307439 16.823198
18.494492 23.583227 14.036708
17.943042 20.769273 13.275723
21.843623 11.593809 17.563459
13.548005 21.146543 14.307963
15.139498 23.167423 16.850478
12.643428 22.898216 17.334992
15.493092 22.338551 13.347026
POINT_DATA 480
SCALARS my_scalars float
LOOKUP_TABLE default
1.39
1.39
1.7
1.7
1.7
1.7
1.7
1.7
1.7
1.7
1.7
1.7
1.7
1.7
1.7
1.7
1.7
1.7
1.7
1.7
1.7
1.7
1.7
1.7
1.7
1.7
1.7
1.7
1.7
1.7
1.7
1.7
1.55
1.55
1.75
1.75
1.52
1.52
1.52
1.52
1.52
1.52
1.52
1.52
1.47
1.47
1.47
1.47
1.47
1.47
1.47
1.47
1.47
1.47
1.47
1.47
1.47
1.47
1.47
1.47
1.39
1.39
1.7
1.7
1.7
1.7
1.7
1.7
1.7
1.7
1.7
1.7
1.7
1.7
1.7
1.7
1.7
1.7
1.7
1.7
1.7
1.7
1.7
1.7
1.7
1.7
1.7
1.7
1.7
1.7
1.7
1.7
1.55
1.55
1.75
1.75
1.52
1.52
1.52
1.52
1.52
1.52
1.52
1.52
1.47
1.47
1.47
1.47
1.47
1.47
1.47
1.47
1.47
1.47
1.47
1.47
1.47
1.47
1.47
1.47
1.39
1.39
1.7
1.7
1.7
1.7
1.7
1.7
1.7
1.7
1.7
1.7
1.7
1.7
1.7
1.7
1.7
1.7
1.7
1.7
1.7
1.7
1.7
1.7
1.7
1.7
1.7
1.7
1.7
1.7
1.7
1.7
1.55
1.55
1.75
1.75
1.52
1.52
1.52
1.52
1.52
1.52
1.52
1.52
1.47
1.47
1.47
1.47
1.47
1.47
1.47
1.47
1.47
1.47
1.47
1.47
1.47
1.47
1.47
1.47
1.39
1.39
1.7
1.7
1.7
1.7
1.7
1.7
1.7
1.7
1.7
1.7
1.7
1.7
1.7
1.7
1.7
1.7
1.7
1.7
1.7
1.7
1.7
1.7
1.7
1.7
1.7
1.7
1.7
1.7
1.7
1.7
1.55
1.55
1.75
1.75
1.52
1.52
1.52
1.52
1.52
1.52
1.52
1.52
1.47
1.47
1.47
1.47
1.47
1.47
1.47
1.47
1.47
1.47
1.47
1.47
1.47
1.47
1.47
1.47
1.39
1.39
1.7
1.7
1.7
1.7
1.7
1.7
1.7
1.7
1.7
1.7
1.7
1.7
1.7
1.7
1.7
1.7
1.7
1.7
1.7
1.7
1.7
1.7
1.7
1.7
1.7
1.7
1.7
1.7
1.7
1.7
1.55
1.55
1.75
1.75
1.52
1.52
1.52
1.52
1.52
1.52
1.52
1.52
1.47
1.47
1.47
1.47
1.47
1.47
1.47
1.47
1.47
1.47
1.47
1.47
1.47
1.47
1.47
1.47
1.39
1.39
1.7
1.7
1.7
1.7
1.7
1.7
1.7
1.7
1.7
1.7
1.7
1.7
1.7
1.7
1.7
1.7
1.7
1.7
1.7
1.7
1.7
1.7
1.7
1.7
1.7
1.7
1.7
1.7
1.7
1.7
1.55
1.55
1.75
1.75
1.52
1.52
1.52
1.52
1.52
1.52
1.52
1.52
1.47
1.47
1.47
1.47
1.47
1.47
1.47
1.47
1.47
1.47
1.47
1.47
1.47
1.47
1.47
1.47
1.39
1.39
1.7
1.7
1.7
1.7
1.7
1.7
1.7
1.7
1.7
1.7
1.7
1.7
1.7
1.7
1.7
1.7
1.7
1.7
1.7
1.7
1.7
1.7
1.7
1.7
1.7
1.7
1.7
1.7
1.7
1.7
1.55
1.55
1.75
1.75
1.52
1.52
1.52
1.52
1.52
1.52
1.52
1.52
1.47
1.47
1.47
1.47
1.47
1.47
1.47
1.47
1.47
1.47
1.47
1.47
1.47
1.47
1.47
1.47
1.39
1.39
1.7
1.7
1.7
1.7
1.7
1.7
1.7
1.7
1.7
1.7
1.7
1.7
1.7
1.7
1.7
1.7
1.7
1.7
1.7
1.7
1.7
1.7
1.7
1.7
1.7
1.7
1.7
1.7
1.7
1.7
1.55
1.55
1.75
1.75
1.52
1.52
1.52
1.52
1.52
1.52
1.52
1.52
1.47
1.47
1.47
1.47
1.47
1.47
1.47
1.47
1.47
1.47
1.47
1.47
1.47
1.47
1.47
1.47
VECTORS vectors float
0.4375 0 0
0.4375 0 0
0.3125 0 0
0.3125 0 0
0.3125 0 0
0.3125 0 0
0.3125 0 0
0.3125 0 0
0.3125 0 0
0.3125 0 0
0.3125 0 0
0.3125 0 0
0.3125 0 0
0.3125 0 0
0.3125 0 0
0.3125 0 0
0.3125 0 0
0.3125 0 0
0.3125 0 0
0.3125 0 0
0.3125 0 0
0.3125 0 0
0.3125 0 0
0.3125 0 0
0.3125 0 0
0.3125 0 0
0.3125 0 0
0.3125 0 0
0.3125 0 0
0.3125 0 0
0.3125 0 0
0.3125 0 0
0 0 0
0 0 0
0.4375 0 0
0.4375 0 0
0.03125 0 0
0.03125 0 0
0.03125 0 0
0.03125 0 0
0.03125 0 0
0.03125 0 0
0.03125 0 0
0.03125 0 0
0.4375 0 0
0.4375 0 0
0.4375 0 0
0.4375 0 0
0.4375 0 0
0.4375 0 0
0.4375 0 0
0.4375 0 0
0.4375 0 0
0.4375 0 0
0.4375 0 0
0.4375 0 0
0.4375 0 0
0.4375 0 0
0.4375 0 0
0.4375 0 0
0.4375 0 0
0.4375 0 0
0.3125 0 0
0.3125 0 0
0.3125 0 0
0.3125 0 0
0.3125 0 0
0.3125 0 0
0.3125 0 0
0.3125 0 0
0.3125 0 0
0.3125 0 0
0.3125 0 0
0.3125 0 0
0.3125 0 0
0.3125 0 0
0.3125 0 0
0.3125 0 0
0.3125 0 0
0.3125 0 0
0.3125 0 0
0.3125 0 0
0.3125 0 0
0.3125 0 0
0.3125 0 0
0.3125 0 0
0.3125 0 0
0.3125 0 0
0.3125 0 0
0.3125 0 0
0.3125 0 0
0.3125 0 0
0 0 0
0 0 0
0.4375 0 0
0.4375 0 0
0.03125 0 0
0.03125 0 0
0.03125 0 0
0.03125 0 0
0.03125 0 0
0.03125 0 0
0.03125 0 0
0.03125 0 0
0.4375 0 0
0.4375 0 0
0.4375 0 0
0.4375 0 0
0.4375 0 0
0.4375 0 0
0.4375 0 0
0.4375 0 0
0.4375 0 0
0.4375 0 0
0.4375 0 0
0.4375 0 0
0.4375 0 0
0.4375 0 0
0.4375 0 0
0.4375 0 0
0.4375 0 0
0.4375 0 0
0.3125 0 0
0.3125 0 0
0.3125 0 0
0.3125 0 0
0.3125 0 0
0.3125 0 0
0.3125 0 0
0.3125 0 0
0.3125 0 0
0.3125 0 0
0.3125 0 0
0.3125 0 0
0.3125 0 0
0.3125 0 0
0.3125 0 0
0.3125 0 0
0.3125 0 0
0.3125 0 0
0.3125 0 0
0.3125 0 0
0.3125 0 0
0.3125 0 0
0.3125 0 0
0.3125 0 0
0.3125 0 0
0.3125 0 0
0.3125 0 0
0.3125 0 0
0.3125 0 0
0.3125 0 0
0 0 0
0 0 0
0.4375 0 0
0.4375 0 0
0.03125 0 0
0.03125 0 0
0.03125 0 0
0.03125 0 0
0.03125 0 0
0.03125 0 0
0.03125 0 0
0.03125 0 0
0.4375 0 0
0.4375 0 0
0.4375 0 0
0.4375 0 0
0.4375 0 0
0.4375 0 0
0.4375 0 0
0.4375 0 0
0.4375 0 0
0.4375 0 0
0.4375 0 0
0.4375 0 0
0.4375 0 0
0.4375 0 0
0.4375 0 0
0.4375 0 0
0.4375 0 0
0.4375 0 0
0.3125 0 0
0.3125 0 0
0.3125 0 0
0.3125 0 0
0.3125 0 0
0.3125 0 0
0.3125 0 0
0.3125 0 0
0.3125 0 0
0.3125 0 0
0.3125 0 0
0.3125 0 0
0.3125 0 0
0.3125 0 0
0.3125 0 0
0.3125 0 0
0.3125 0 0
0.3125 0 0
0.3125 0 0
0.3125 0 0
0.3125 0 0
0.3125 0 0
0.3125 0 0
0.3125 0 0
0.3125 0 0
0.3125 0 0
0.3125 0 0
0.3125 0 0
0.3125 0 0
0.3125 0 0
0 0 0
0 0 0
0.4375 0 0
0.4375 0 0
0.03125 0 0
0.03125 0 0
0.03125 0 0
0.03125 0 0
0.03125 0 0
0.03125 0 0
0.03125 0 0
0.03125 0 0
0.4375 0 0
0.4375 0 0
0.4375 0 0
0.4375 0 0
0.4375 0 0
0.4375 0 0
0.4375 0 0
0.4375 0 0
0.4375 0 0
0.4375 0 0
0.4375 0 0
0.4375 0 0
0.4375 0 0
0.4375 0 0
0.4375 0 0
0.4375 0 0
0.4375 0 0
0.4375 0 0
0.3125 0 0
0.3125 0 0
0.3125 0 0
0.3125 0 0
0.3125 0 0
0.3125 0 0
0.3125 0 0
0.3125 0 0
0.3125 0 0
0.3125 0 0
0.3125 0 0
0.3125 0 0
0.3125 0 0
0.3125 0 0
0.3125 0 0
0.3125 0 0
0.3125 0 0
0.3125 0 0
0.3125 0 0
0.3125 0 0
0.3125 0 0
0.3125 0 0
0.3125 0 0
0.3125 0 0
0.3125 0 0
0.3125 0 0
0.3125 0 0
0.3125 0 0
0.3125 0 0
0.3125 0 0
0 0 0
0 0 0
0.4375 0 0
0.4375 0 0
0.03125 0 0
0.03125 0 0
0.03125 0 0
0.03125 0 0
0.03125 0 0
0.03125 0 0
0.03125 0 0
0.03125 0 0
0.4375 0 0
0.4375 0 0
0.4375 0 0
0.4375 0 0
0.4375 0 0
0.4375 0 0
0.4375 0 0
0.4375 0 0
0.4375 0 0
0.4375 0 0
0.4375 0 0
0.4375 0 0
0.4375 0 0
0.4375 0 0
0.4375 0 0
0.4375 0 0
0.4375 0 0
0.4375 0 0
0.3125 0 0
0.3125 0 0
0.3125 0 0
0.3125 0 0
0.3125 0 0
0.3125 0 0
0.3125 0 0
0.3125 0 0
0.3125 0 0
0.3125 0 0
0.3125 0 0
0.3125 0 0
0.3125 0 0
0.3125 0 0
0.3125 0 0
0.3125 0 0
0.3125 0 0
0.3125 0 0
0.3125 0 0
0.3125 0 0
0.3125 0 0
0.3125 0 0
0.3125 0 0
0.3125 0 0
0.3125 0 0
0.3125 0 0
0.3125 0 0
0.3125 0 0
0.3125 0 0
0.3125 0 0
0 0 0
0 0 0
0.4375 0 0
0.4375 0 0
0.03125 0 0
0.03125 0 0
0.03125 0 0
0.03125 0 0
0.03125 0 0
0.03125 0 0
0.03125 0 0
0.03125 0 0
0.4375 0 0
0.4375 0 0
0.4375 0 0
0.4375 0 0
0.4375 0 0
0.4375 0 0
0.4375 0 0
0.4375 0 0
0.4375 0 0
0.4375 0 0
0.4375 0 0
0.4375 0 0
0.4375 0 0
0.4375 0 0
0.4375 0 0
0.4375 0 0
0.4375 0 0
0.4375 0 0
0.3125 0 0
0.3125 0 0
0.3125 0 0
0.3125 0 0
0.3125 0 0
0.3125 0 0
0.3125 0 0
0.3125 0 0
0.3125 0 0
0.3125 0 0
0.3125 0 0
0.3125 0 0
0.3125 0 0
0.3125 0 0
0.3125 0 0
0.3125 0 0
0.3125 0 0
0.3125 0 0
0.3125 0 0
0.3125 0 0
0.3125 0 0
0.3125 0 0
0.3125 0 0
0.3125 0 0
0.3125 0 0
0.3125 0 0
0.3125 0 0
0.3125 0 0
0.3125 0 0
0.3125 0 0
0 0 0
0 0 0
0.4375 0 0
0.4375 0 0
0.03125 0 0
0.03125 0 0
0.03125 0 0
0.03125 0 0
0.03125 0 0
0.03125 0 0
0.03125 0 0
0.03125 0 0
0.4375 0 0
0.4375 0 0
0.4375 0 0
0.4375 0 0
0.4375 0 0
0.4375 0 0
0.4375 0 0
0.4375 0 0
0.4375 0 0
0.4375 0 0
0.4375 0 0
0.4375 0 0
0.4375 0 0
0.4375 0 0
0.4375 0 0
0.4375 0 0
0.4375 0 0
0.4375 0 0
0.3125 0 0
0.3125 0 0
0.3125 0 0
0.3125 0 0
0.3125 0 0
0.3125 0 0
0.3125 0 0
0.3125 0 0
0.3125 0 0
0.3125 0 0
0.3125 0 0
0.3125 0 0
0.3125 0 0
0.3125 0 0
0.3125 0 0
0.3125 0 0
0.3125 0 0
0.3125 0 0
0.3125 0 0
0.3125 0 0
0.3125 0 0
0.3125 0 0
0.3125 0 0
0.3125 0 0
0.3125 0 0
0.3125 0 0
0.3125 0 0
0.3125 0 0
0.3125 0 0
0.3125 0 0
0 0 0
0 0 0
0.4375 0 0
0.4375 0 0
0.03125 0 0
0.03125 0 0
0.03125 0 0
0.03125 0 0
0.03125 0 0
0.03125 0 0
0.03125 0 0
0.03125 0 0
0.4375 0 0
0.4375 0 0
0.4375 0 0
0.4375 0 0
0.4375 0 0
0.4375 0 0
0.4375 0 0
0.4375 0 0
0.4375 0 0
0.4375 0 0
0.4375 0 0
0.4375 0 0
0.4375 0 0
0.4375 0 0
0.4375 0 0
0.4375 0 0
