# vtk DataFile Version 1.0
Cube
ASCII

DATASET POLYDATA
POINTS 608 float
5.993819 4.738528 0.126377
5.691737 2.444490 14.389666
4.588619 5.385886 13.895564
7.115704 1.809068 0.680279
5.500020 9.633965 12.789161
6.980934 11.523209 1.785829
3.256576 12.961379 12.774557
9.240775 8.188066 1.789362
4.859006 1.494457 6.401593
4.705558 5.623389 7.904624
6.170639 1.615490 8.375633
6.518281 5.443410 6.444935
8.436798 3.507747 14.843616
3.190162 3.967582 14.860735
0.617806 3.669633 14.846672
1.796871 3.805378 14.851893
5.911724 0.367658 0.373641
5.786344 6.831667 14.202017
6.642832 12.929249 0.494753
5.841018 8.230581 14.081854
5.686495 12.422016 14.801839
6.705484 8.975588 14.911730
4.800747 13.122142 13.968691
7.698896 8.032480 0.590844
4.050481 0.590890 13.923376
7.665101 6.602241 0.632081
6.446687 3.223514 2.365560
5.337870 4.031657 12.219067
5.326712 2.321148 5.878710
4.996036 4.798955 8.545812
5.791322 2.533847 8.808578
6.231741 4.550885 5.900502
5.650955 2.180341 4.536135
5.089112 5.008593 9.911467
5.838558 2.697677 10.183755
6.523878 4.476409 4.551529
6.212862 3.290730 3.824105
5.460753 3.935834 10.758599
5.608802 3.496613 6.556633
5.390016 3.585873 7.989758
4.949819 1.304097 14.687924
6.653947 6.132396 15.022578
5.639126 10.982672 14.811033
6.753677 10.415246 14.905172
3.155342 1.279120 13.047063
8.578532 5.909063 1.485289
5.423266 0.885144 3.958831
4.918496 6.345050 10.381091
6.441941 1.661747 10.963064
7.182230 5.609710 3.976820
7.949987 2.351211 15.085032
3.676659 5.125800 14.628399
7.697288 4.521402 14.600413
3.929357 2.955608 15.113018
4.854911 6.198557 13.421591
6.836158 1.004221 1.161127
5.042267 8.821723 13.123013
7.435311 12.340599 1.459867
3.916169 12.371690 13.214877
8.591190 8.780263 1.338512
3.343678 1.207362 11.761183
2.007098 1.692657 13.494519
8.399853 5.950747 2.773704
0.522318 5.539220 1.020230
6.191832 2.107887 1.746953
5.603861 5.150497 12.832155
4.959012 2.966835 12.858524
6.836680 4.291549 1.720583
4.480965 0.723839 3.077115
6.605215 13.800605 4.623282
5.963556 6.993667 10.805598
3.879587 7.024539 9.988541
7.522930 1.935514 11.629255
6.140609 0.417046 10.732616
8.290410 6.027155 4.517588
6.488360 6.449233 3.269380
5.893250 4.978673 15.270389
5.591168 2.684636 29.533678
4.488049 5.626032 29.039576
7.015134 2.049213 15.824292
5.399451 9.874111 27.933173
6.880365 11.763355 16.929842
3.156006 13.201525 27.918569
9.140206 8.428212 16.933375
4.758437 1.734602 21.545605
4.604989 5.863535 23.048636
6.070070 1.855636 23.519645
6.417712 5.683555 21.588948
8.336229 3.747893 29.987628
3.089592 4.207728 30.004747
0.517237 3.909779 29.990684
1.696302 4.045524 29.995905
5.811155 0.607803 15.517653
5.685774 7.071813 29.346029
6.542262 13.169394 15.638766
5.740449 8.470727 29.225867
5.585926 12.662161 29.945851
6.604915 9.215733 30.055742
4.700177 13.362287 29.112704
7.598326 8.272626 15.734857
3.949912 0.831035 29.067388
7.564532 6.842387 15.776093
6.346118 3.463659 17.509572
5.237300 4.271803 27.363080
5.226143 2.561293 21.022722
4.895466 5.039100 23.689824
5.690753 2.773992 23.952590
6.131172 4.791031 21.044515
5.550385 2.420486 19.680147
4.988542 5.248738 25.055479
5.737989 2.937822 25.327767
6.423308 4.716555 19.695541
6.112293 3.530875 18.968118
5.360184 4.175979 25.902612
5.508233 3.736759 21.700646
5.289447 3.826019 23.133770
4.849249 1.544242 29.831936
6.553377 6.372542 30.166591
5.538556 11.222817 29.955045
6.653108 10.655391 30.049184
3.054772 1.519266 28.191075
8.477962 6.149208 16.629301
5.322697 1.125290 19.102843
4.817927 6.585195 25.525103
6.341371 1.901892 26.107076
7.081661 5.849856 19.120832
7.849417 2.591356 30.229044
3.576089 5.365946 29.772412
7.596719 4.761548 29.744426
3.828788 3.195754 30.257030
4.754342 6.438702 28.565603
6.735588 1.244366 16.305139
4.941698 9.061868 28.267025
7.334742 12.580744 16.603879
3.815599 12.611835 28.358889
8.490621 9.020408 16.482524
3.243109 1.447507 26.905195
1.906529 1.932803 28.638531
8.299283 6.190892 17.917716
0.421749 5.779366 16.164242
6.091262 2.348033 16.890965
5.503291 5.390643 27.976167
4.858443 3.206980 28.002537
6.736110 4.531695 16.864595
4.380396 0.963984 18.221127
6.504645 14.040750 19.767294
5.862986 7.233812 25.949610
3.779018 7.264684 25.132553
7.422361 2.175660 26.773267
6.040040 0.657191 25.876628
8.189841 6.267301 19.661600
6.387790 6.689378 18.413392
6.777058 18.699384 0.126377
6.474976 16.405347 14.389666
5.371858 19.346743 13.895564
7.898942 15.769924 0.680279
6.283259 23.594822 12.789161
7.764173 25.484065 1.785829
4.039814 26.922236 12.774557
10.024014 22.148923 1.789362
5.642245 15.455313 6.401593
5.488797 19.584246 7.904624
6.953878 15.576347 8.375633
7.301520 19.404266 6.444935
9.220037 17.468604 14.843616
3.973400 17.928439 14.860735
1.401045 17.630490 14.846672
2.580110 17.766235 14.851893
6.694963 14.328514 0.373641
6.569582 20.792524 14.202017
7.426071 26.890105 0.494753
6.624257 22.191438 14.081854
6.469734 26.382872 14.801839
7.488723 22.936444 14.911730
5.583985 27.082998 13.968691
8.482135 21.993337 0.590844
4.833720 14.551746 13.923376
8.448340 20.563098 0.632081
7.229926 17.184370 2.365560
6.121108 17.992514 12.219067
6.109951 16.282004 5.878710
5.779274 18.759811 8.545812
6.574561 16.494703 8.808578
7.014980 18.511742 5.900502
6.434193 16.141197 4.536135
5.872350 18.969449 9.911467
6.621797 16.658533 10.183755
7.307117 18.437266 4.551529
6.996101 17.251586 3.824105
6.243992 17.896690 10.758599
6.392041 17.457470 6.556633
6.173255 17.546730 7.989758
5.733058 15.264953 14.687924
7.437186 20.093253 15.022578
6.422365 24.943528 14.811033
7.536916 24.376102 14.905172
3.938580 15.239977 13.047063
9.361770 19.869919 1.485289
6.206505 14.846000 3.958831
5.701735 20.305906 10.381091
7.225179 15.622603 10.963064
7.965469 19.570567 3.976820
8.733225 16.312067 15.085032
4.459897 19.086657 14.628399
8.480527 18.482259 14.600413
4.712596 16.916465 15.113018
5.638150 20.159413 13.421591
7.619397 14.965077 1.161127
5.825506 22.782579 13.123013
8.218550 26.301455 1.459867
4.699407 26.332546 13.214877
9.374429 22.741119 1.338512
4.126917 15.168218 11.761183
2.790337 15.653514 13.494519
9.183091 19.911603 2.773704
1.305557 19.500077 1.020230
6.975071 16.068744 1.746953
6.387099 19.111354 12.832155
5.742251 16.927691 12.858524
7.619918 18.252406 1.720583
5.264204 14.684695 3.077115
7.388453 27.761461 4.623282
6.746795 20.954523 10.805598
4.662826 20.985395 9.988541
8.306169 15.896371 11.629255
6.923848 14.377902 10.732616
9.073649 19.988012 4.517588
7.271599 20.410089 3.269380
6.676489 18.939530 15.270389
6.374406 16.645492 29.533678
5.271288 19.586888 29.039576
7.798373 16.010070 15.824292
6.182690 23.834967 27.933173
7.663603 25.724211 16.929842
3.939245 27.162381 27.918569
9.923445 22.389068 16.933375
5.541676 15.695459 21.545605
5.388228 19.824391 23.048636
6.853309 15.816492 23.519645
7.200951 19.644412 21.588948
9.119468 17.708749 29.987628
3.872831 18.168584 30.004747
1.300476 17.870635 29.990684
2.479541 18.006380 29.995905
6.594394 14.568660 15.517653
6.469013 21.032669 29.346029
7.325501 27.130251 15.638766
6.523688 22.431583 29.225867
6.369165 26.623018 29.945851
7.388154 23.176590 30.055742
5.483416 27.323144 29.112704
8.381565 22.233482 15.734857
4.733151 14.791892 29.067388
8.347771 20.803243 15.776093
7.129356 17.424516 17.509572
6.020539 18.232659 27.363080
6.009381 16.522150 21.022722
5.678705 18.999957 23.689824
6.473992 16.734849 23.952590
6.914411 18.751887 21.044515
6.333624 16.381342 19.680147
5.771781 19.209595 25.055479
6.521228 16.898679 25.327767
7.206547 18.677411 19.695541
6.895531 17.491732 18.968118
6.143423 18.136836 25.902612
6.291471 17.697615 21.700646
6.072686 17.786875 23.133770
5.632488 15.505098 29.831936
7.336616 20.333398 30.166591
6.321795 25.183674 29.955045
7.436346 24.616248 30.049184
3.838011 15.480122 28.191075
9.261201 20.110065 16.629301
6.105935 15.086146 19.102843
5.601166 20.546052 25.525103
7.124610 15.862749 26.107076
7.864900 19.810712 19.120832
8.632656 16.552213 30.229044
4.359328 19.326802 29.772412
8.379958 18.722404 29.744426
4.612027 17.156610 30.257030
5.537580 20.399559 28.565603
7.518827 15.205223 16.305139
5.724937 23.022725 28.267025
8.117981 26.541601 16.603879
4.598838 26.572692 28.358889
9.273859 22.981264 16.482524
4.026348 15.408364 26.905195
2.689768 15.893659 28.638531
9.082522 20.151749 17.917716
1.204988 19.740222 16.164242
6.874501 16.308889 16.890965
6.286530 19.351499 27.976167
5.641682 17.167837 28.002537
7.519349 18.492551 16.864595
5.163635 14.924841 18.221127
7.287884 28.001607 19.767294
6.646225 21.194669 25.949610
4.562257 21.225541 25.132553
8.205600 16.136516 26.773267
6.823279 14.618048 25.876628
8.973079 20.228157 19.661600
7.171029 20.650235 18.413392
15.206339 4.738528 0.126377
14.904257 2.444490 14.389666
13.801139 5.385886 13.895564
16.328224 1.809068 0.680279
14.712540 9.633965 12.789161
16.193454 11.523209 1.785829
12.469096 12.961379 12.774557
18.453295 8.188066 1.789362
14.071526 1.494457 6.401593
13.918078 5.623389 7.904624
15.383159 1.615490 8.375633
15.730801 5.443410 6.444935
17.649318 3.507747 14.843616
12.402682 3.967582 14.860735
9.830326 3.669633 14.846672
11.009391 3.805378 14.851893
15.124244 0.367658 0.373641
14.998864 6.831667 14.202017
15.855352 12.929249 0.494753
15.053538 8.230581 14.081854
14.899015 12.422016 14.801839
15.918004 8.975588 14.911730
14.013267 13.122142 13.968691
16.911416 8.032480 0.590844
13.263001 0.590890 13.923376
16.877621 6.602241 0.632081
15.659207 3.223514 2.365560
14.550390 4.031657 12.219067
14.539232 2.321148 5.878710
14.208556 4.798955 8.545812
15.003842 2.533847 8.808578
15.444261 4.550885 5.900502
14.863475 2.180341 4.536135
14.301632 5.008593 9.911467
15.051078 2.697677 10.183755
15.736398 4.476409 4.551529
15.425382 3.290730 3.824105
14.673273 3.935834 10.758599
14.821322 3.496613 6.556633
14.602536 3.585873 7.989758
14.162339 1.304097 14.687924
15.866467 6.132396 15.022578
14.851646 10.982672 14.811033
15.966197 10.415246 14.905172
12.367862 1.279120 13.047063
17.791052 5.909063 1.485289
14.635786 0.885144 3.958831
14.131016 6.345050 10.381091
15.654461 1.661747 10.963064
16.394750 5.609710 3.976820
17.162507 2.351211 15.085032
12.889179 5.125800 14.628399
16.909808 4.521402 14.600413
13.141877 2.955608 15.113018
14.067431 6.198557 13.421591
16.048678 1.004221 1.161127
14.254787 8.821723 13.123013
16.647831 12.340599 1.459867
13.128689 12.371690 13.214877
17.803710 8.780263 1.338512
12.556198 1.207362 11.761183
11.219618 1.692657 13.494519
17.612373 5.950747 2.773704
9.734838 5.539220 1.020230
15.404352 2.107887 1.746953
14.816381 5.150497 12.832155
14.171532 2.966835 12.858524
16.049200 4.291549 1.720583
13.693485 0.723839 3.077115
15.817735 13.800605 4.623282
15.176076 6.993667 10.805598
13.092107 7.024539 9.988541
16.735450 1.935514 11.629255
15.353129 0.417046 10.732616
17.502930 6.027155 4.517588
15.700880 6.449233 3.269380
15.105770 4.978673 15.270389
14.803688 2.684636 29.533678
13.700569 5.626032 29.039576
16.227654 2.049213 15.824292
14.611971 9.874111 27.933173
16.092885 11.763355 16.929842
12.368526 13.201525 27.918569
18.352726 8.428212 16.933375
13.970957 1.734602 21.545605
13.817509 5.863535 23.048636
15.282590 1.855636 23.519645
15.630232 5.683555 21.588948
17.548749 3.747893 29.987628
12.302112 4.207728 30.004747
9.729757 3.909779 29.990684
10.908822 4.045524 29.995905
15.023675 0.607803 15.517653
14.898294 7.071813 29.346029
15.754782 13.169394 15.638766
14.952969 8.470727 29.225867
14.798446 12.662161 29.945851
15.817435 9.215733 30.055742
13.912697 13.362287 29.112704
16.810846 8.272626 15.734857
13.162432 0.831035 29.067388
16.777052 6.842387 15.776093
15.558638 3.463659 17.509572
14.449820 4.271803 27.363080
14.438663 2.561293 21.022722
14.107986 5.039100 23.689824
14.903273 2.773992 23.952590
15.343692 4.791031 21.044515
14.762905 2.420486 19.680147
14.201062 5.248738 25.055479
14.950509 2.937822 25.327767
15.635828 4.716555 19.695541
15.324813 3.530875 18.968118
14.572704 4.175979 25.902612
14.720753 3.736759 21.700646
14.501967 3.826019 23.133770
14.061769 1.544242 29.831936
15.765897 6.372542 30.166591
14.751076 11.222817 29.955045
15.865628 10.655391 30.049184
12.267292 1.519266 28.191075
17.690482 6.149208 16.629301
14.535217 1.125290 19.102843
14.030447 6.585195 25.525103
15.553891 1.901892 26.107076
16.294181 5.849856 19.120832
17.061937 2.591356 30.229044
12.788609 5.365946 29.772412
16.809239 4.761548 29.744426
13.041308 3.195754 30.257030
13.966862 6.438702 28.565603
15.948108 1.244366 16.305139
14.154218 9.061868 28.267025
16.547262 12.580744 16.603879
13.028119 12.611835 28.358889
17.703141 9.020408 16.482524
12.455629 1.447507 26.905195
11.119049 1.932803 28.638531
17.511803 6.190892 17.917716
9.634269 5.779366 16.164242
15.303782 2.348033 16.890965
14.715811 5.390643 27.976167
14.070963 3.206980 28.002537
15.948630 4.531695 16.864595
13.592916 0.963984 18.221127
15.717165 14.040750 19.767294
15.075506 7.233812 25.949610
12.991538 7.264684 25.132553
16.634881 2.175660 26.773267
15.252560 0.657191 25.876628
17.402361 6.267301 19.661600
15.600310 6.689378 18.413392
15.989578 18.699384 0.126377
15.687496 16.405347 14.389666
14.584378 19.346743 13.895564
17.111462 15.769924 0.680279
15.495779 23.594822 12.789161
16.976693 25.484065 1.785829
13.252334 26.922236 12.774557
19.236534 22.148923 1.789362
14.854765 15.455313 6.401593
14.701317 19.584246 7.904624
16.166398 15.576347 8.375633
16.514040 19.404266 6.444935
18.432557 17.468604 14.843616
13.185920 17.928439 14.860735
10.613565 17.630490 14.846672
11.792630 17.766235 14.851893
15.907483 14.328514 0.373641
15.782102 20.792524 14.202017
16.638591 26.890105 0.494753
15.836777 22.191438 14.081854
15.682254 26.382872 14.801839
16.701243 22.936444 14.911730
14.796505 27.082998 13.968691
17.694655 21.993337 0.590844
14.046240 14.551746 13.923376
17.660860 20.563098 0.632081
16.442446 17.184370 2.365560
15.333628 17.992514 12.219067
15.322471 16.282004 5.878710
14.991794 18.759811 8.545812
15.787081 16.494703 8.808578
16.227500 18.511742 5.900502
15.646713 16.141197 4.536135
15.084870 18.969449 9.911467
15.834317 16.658533 10.183755
16.519637 18.437266 4.551529
16.208621 17.251586 3.824105
15.456512 17.896690 10.758599
15.604561 17.457470 6.556633
15.385775 17.546730 7.989758
14.945578 15.264953 14.687924
16.649706 20.093253 15.022578
15.634885 24.943528 14.811033
16.749436 24.376102 14.905172
13.151100 15.239977 13.047063
18.574290 19.869919 1.485289
15.419025 14.846000 3.958831
14.914255 20.305906 10.381091
16.437699 15.622603 10.963064
17.177989 19.570567 3.976820
17.945745 16.312067 15.085032
13.672417 19.086657 14.628399
17.693047 18.482259 14.600413
13.925116 16.916465 15.113018
14.850670 20.159413 13.421591
16.831917 14.965077 1.161127
15.038026 22.782579 13.123013
17.431070 26.301455 1.459867
13.911927 26.332546 13.214877
18.586949 22.741119 1.338512
13.339437 15.168218 11.761183
12.002857 15.653514 13.494519
18.395611 19.911603 2.773704
10.518077 19.500077 1.020230
16.187591 16.068744 1.746953
15.599619 19.111354 12.832155
14.954771 16.927691 12.858524
16.832438 18.252406 1.720583
14.476724 14.684695 3.077115
16.600973 27.761461 4.623282
15.959315 20.954523 10.805598
13.875346 20.985395 9.988541
17.518689 15.896371 11.629255
16.136368 14.377902 10.732616
18.286169 19.988012 4.517588
16.484119 20.410089 3.269380
15.889009 18.939530 15.270389
15.586926 16.645492 29.533678
14.483808 19.586888 29.039576
17.010893 16.010070 15.824292
15.395210 23.834967 27.933173
16.876123 25.724211 16.929842
13.151765 27.162381 27.918569
19.135965 22.389068 16.933375
14.754196 15.695459 21.545605
14.600748 19.824391 23.048636
16.065829 15.816492 23.519645
16.413471 19.644412 21.588948
18.331988 17.708749 29.987628
13.085351 18.168584 30.004747
10.512996 17.870635 29.990684
11.692061 18.006380 29.995905
15.806914 14.568660 15.517653
15.681533 21.032669 29.346029
16.538021 27.130251 15.638766
15.736208 22.431583 29.225867
15.581685 26.623018 29.945851
16.600674 23.176590 30.055742
14.695936 27.323144 29.112704
17.594085 22.233482 15.734857
13.945671 14.791892 29.067388
17.560291 20.803243 15.776093
16.341876 17.424516 17.509572
15.233059 18.232659 27.363080
15.221901 16.522150 21.022722
14.891225 18.999957 23.689824
15.686512 16.734849 23.952590
16.126931 18.751887 21.044515
15.546144 16.381342 19.680147
14.984301 19.209595 25.055479
15.733748 16.898679 25.327767
16.419067 18.677411 19.695541
16.108051 17.491732 18.968118
15.355943 18.136836 25.902612
15.503991 17.697615 21.700646
15.285206 17.786875 23.133770
14.845008 15.505098 29.831936
16.549136 20.333398 30.166591
15.534315 25.183674 29.955045
16.648866 24.616248 30.049184
13.050531 15.480122 28.191075
18.473721 20.110065 16.629301
15.318455 15.086146 19.102843
14.813686 20.546052 25.525103
16.337130 15.862749 26.107076
17.077420 19.810712 19.120832
17.845176 16.552213 30.229044
13.571848 19.326802 29.772412
17.592478 18.722404 29.744426
13.824547 17.156610 30.257030
14.750100 20.399559 28.565603
16.731347 15.205223 16.305139
14.937457 23.022725 28.267025
17.330501 26.541601 16.603879
13.811358 26.572692 28.358889
18.486379 22.981264 16.482524
13.238868 15.408364 26.905195
11.902288 15.893659 28.638531
18.295042 20.151749 17.917716
10.417508 19.740222 16.164242
16.087021 16.308889 16.890965
15.499050 19.351499 27.976167
14.854202 17.167837 28.002537
16.731869 18.492551 16.864595
14.376155 14.924841 18.221127
16.500404 28.001607 19.767294
15.858745 21.194669 25.949610
13.774777 21.225541 25.132553
17.418120 16.136516 26.773267
16.035799 14.618048 25.876628
18.185599 20.228157 19.661600
16.383549 20.650235 18.413392
POINT_DATA 608
SCALARS my_scalars float
LOOKUP_TABLE default
1.4
1.4
1.09
1.09
1.09
1.09
1.09
1.09
1.09
1.09
1.09
1.09
1.7
1.7
1.7
1.7
1.7
1.7
1.7
1.7
1.7
1.7
1.7
1.7
1.7
1.7
1.7
1.7
1.7
1.7
1.7
1.7
1.7
1.7
1.7
1.7
1.7
1.7
1.7
1.7
1.55
1.55
1.55
1.55
1.55
1.55
1.55
1.55
1.55
1.55
1.52
1.52
1.52
1.52
1.52
1.52
1.52
1.52
1.52
1.52
1.52
1.52
1.52
1.52
1.52
1.52
1.52
1.52
1.52
1.52
1.52
1.52
1.52
1.52
1.52
1.52
1.4
1.4
1.09
1.09
1.09
1.09
1.09
1.09
1.09
1.09
1.09
1.09
1.7
1.7
1.7
1.7
1.7
1.7
1.7
1.7
1.7
1.7
1.7
1.7
1.7
1.7
1.7
1.7
1.7
1.7
1.7
1.7
1.7
1.7
1.7
1.7
1.7
1.7
1.7
1.7
1.55
1.55
1.55
1.55
1.55
1.55
1.55
1.55
1.55
1.55
1.52
1.52
1.52
1.52
1.52
1.52
1.52
1.52
1.52
1.52
1.52
1.52
1.52
1.52
1.52
1.52
1.52
1.52
1.52
1.52
1.52
1.52
1.52
1.52
1.52
1.52
1.4
1.4
1.09
1.09
1.09
1.09
1.09
1.09
1.09
1.09
1.09
1.09
1.7
1.7
1.7
1.7
1.7
1.7
1.7
1.7
1.7
1.7
1.7
1.7
1.7
1.7
1.7
1.7
1.7
1.7
1.7
1.7
1.7
1.7
1.7
1.7
1.7
1.7
1.7
1.7
1.55
1.55
1.55
1.55
1.55
1.55
1.55
1.55
1.55
1.55
1.52
1.52
1.52
1.52
1.52
1.52
1.52
1.52
1.52
1.52
1.52
1.52
1.52
1.52
1.52
1.52
1.52
1.52
1.52
1.52
1.52
1.52
1.52
1.52
1.52
1.52
1.4
1.4
1.09
1.09
1.09
1.09
1.09
1.09
1.09
1.09
1.09
1.09
1.7
1.7
1.7
1.7
1.7
1.7
1.7
1.7
1.7
1.7
1.7
1.7
1.7
1.7
1.7
1.7
1.7
1.7
1.7
1.7
1.7
1.7
1.7
1.7
1.7
1.7
1.7
1.7
1.55
1.55
1.55
1.55
1.55
1.55
1.55
1.55
1.55
1.55
1.52
1.52
1.52
1.52
1.52
1.52
1.52
1.52
1.52
1.52
1.52
1.52
1.52
1.52
1.52
1.52
1.52
1.52
1.52
1.52
1.52
1.52
1.52
1.52
1.52
1.52
1.4
1.4
1.09
1.09
1.09
1.09
1.09
1.09
1.09
1.09
1.09
1.09
1.7
1.7
1.7
1.7
1.7
1.7
1.7
1.7
1.7
1.7
1.7
1.7
1.7
1.7
1.7
1.7
1.7
1.7
1.7
1.7
1.7
1.7
1.7
1.7
1.7
1.7
1.7
1.7
1.55
1.55
1.55
1.55
1.55
1.55
1.55
1.55
1.55
1.55
1.52
1.52
1.52
1.52
1.52
1.52
1.52
1.52
1.52
1.52
1.52
1.52
1.52
1.52
1.52
1.52
1.52
1.52
1.52
1.52
1.52
1.52
1.52
1.52
1.52
1.52
1.4
1.4
1.09
1.09
1.09
1.09
1.09
1.09
1.09
1.09
1.09
1.09
1.7
1.7
1.7
1.7
1.7
1.7
1.7
1.7
1.7
1.7
1.7
1.7
1.7
1.7
1.7
1.7
1.7
1.7
1.7
1.7
1.7
1.7
1.7
1.7
1.7
1.7
1.7
1.7
1.55
1.55
1.55
1.55
1.55
1.55
1.55
1.55
1.55
1.55
1.52
1.52
1.52
1.52
1.52
1.52
1.52
1.52
1.52
1.52
1.52
1.52
1.52
1.52
1.52
1.52
1.52
1.52
1.52
1.52
1.52
1.52
1.52
1.52
1.52
1.52
1.4
1.4
1.09
1.09
1.09
1.09
1.09
1.09
1.09
1.09
1.09
1.09
1.7
1.7
1.7
1.7
1.7
1.7
1.7
1.7
1.7
1.7
1.7
1.7
1.7
1.7
1.7
1.7
1.7
1.7
1.7
1.7
1.7
1.7
1.7
1.7
1.7
1.7
1.7
1.7
1.55
1.55
1.55
1.55
1.55
1.55
1.55
1.55
1.55
1.55
1.52
1.52
1.52
1.52
1.52
1.52
1.52
1.52
1.52
1.52
1.52
1.52
1.52
1.52
1.52
1.52
1.52
1.52
1.52
1.52
1.52
1.52
1.52
1.52
1.52
1.52
1.4
1.4
1.09
1.09
1.09
1.09
1.09
1.09
1.09
1.09
1.09
1.09
1.7
1.7
1.7
1.7
1.7
1.7
1.7
1.7
1.7
1.7
1.7
1.7
1.7
1.7
1.7
1.7
1.7
1.7
1.7
1.7
1.7
1.7
1.7
1.7
1.7
1.7
1.7
1.7
1.55
1.55
1.55
1.55
1.55
1.55
1.55
1.55
1.55
1.55
1.52
1.52
1.52
1.52
1.52
1.52
1.52
1.52
1.52
1.52
1.52
1.52
1.52
1.52
1.52
1.52
1.52
1.52
1.52
1.52
1.52
1.52
1.52
1.52
1.52
1.52
VECTORS vectors float
0.4375 0 0
0.4375 0 0
0.25 0 0
0.25 0 0
0.25 0 0
0.25 0 0
0.25 0 0
0.25 0 0
0.25 0 0
0.25 0 0
0.25 0 0
0.25 0 0
0.3125 0 0
0.3125 0 0
0.3125 0 0
0.3125 0 0
0.3125 0 0
0.3125 0 0
0.3125 0 0
0.3125 0 0
0.3125 0 0
0.3125 0 0
0.3125 0 0
0.3125 0 0
0.3125 0 0
0.3125 0 0
0.3125 0 0
0.3125 0 0
0.3125 0 0
0.3125 0 0
0.3125 0 0
0.3125 0 0
0.3125 0 0
0.3125 0 0
0.3125 0 0
0.3125 0 0
0.3125 0 0
0.3125 0 0
0.3125 0 0
0.3125 0 0
0 0 0
0 0 0
0 0 0
0 0 0
0 0 0
0 0 0
0 0 0
0 0 0
0 0 0
0 0 0
0.03125 0 0
0.03125 0 0
0.03125 0 0
0.03125 0 0
0.03125 0 0
0.03125 0 0
0.03125 0 0
0.03125 0 0
0.03125 0 0
0.03125 0 0
0.03125 0 0
0.03125 0 0
0.03125 0 0
0.03125 0 0
0.03125 0 0
0.03125 0 0
0.03125 0 0
0.03125 0 0
0.03125 0 0
0.03125 0 0
0.03125 0 0
0.03125 0 0
0.03125 0 0
0.03125 0 0
0.03125 0 0
0.03125 0 0
0.4375 0 0
0.4375 0 0
0.25 0 0
0.25 0 0
0.25 0 0
0.25 0 0
0.25 0 0
0.25 0 0
0.25 0 0
0.25 0 0
0.25 0 0
0.25 0 0
0.3125 0 0
0.3125 0 0
0.3125 0 0
0.3125 0 0
0.3125 0 0
0.3125 0 0
0.3125 0 0
0.3125 0 0
0.3125 0 0
0.3125 0 0
0.3125 0 0
0.3125 0 0
0.3125 0 0
0.3125 0 0
0.3125 0 0
0.3125 0 0
0.3125 0 0
0.3125 0 0
0.3125 0 0
0.3125 0 0
0.3125 0 0
0.3125 0 0
0.3125 0 0
0.3125 0 0
0.3125 0 0
0.3125 0 0
0.3125 0 0
0.3125 0 0
0 0 0
0 0 0
0 0 0
0 0 0
0 0 0
0 0 0
0 0 0
0 0 0
0 0 0
0 0 0
0.03125 0 0
0.03125 0 0
0.03125 0 0
0.03125 0 0
0.03125 0 0
0.03125 0 0
0.03125 0 0
0.03125 0 0
0.03125 0 0
0.03125 0 0
0.03125 0 0
0.03125 0 0
0.03125 0 0
0.03125 0 0
0.03125 0 0
0.03125 0 0
0.03125 0 0
0.03125 0 0
0.03125 0 0
0.03125 0 0
0.03125 0 0
0.03125 0 0
0.03125 0 0
0.03125 0 0
0.03125 0 0
0.03125 0 0
0.4375 0 0
0.4375 0 0
0.25 0 0
0.25 0 0
0.25 0 0
0.25 0 0
0.25 0 0
0.25 0 0
0.25 0 0
0.25 0 0
0.25 0 0
0.25 0 0
0.3125 0 0
0.3125 0 0
0.3125 0 0
0.3125 0 0
0.3125 0 0
0.3125 0 0
0.3125 0 0
0.3125 0 0
0.3125 0 0
0.3125 0 0
0.3125 0 0
0.3125 0 0
0.3125 0 0
0.3125 0 0
0.3125 0 0
0.3125 0 0
0.3125 0 0
0.3125 0 0
0.3125 0 0
0.3125 0 0
0.3125 0 0
0.3125 0 0
0.3125 0 0
0.3125 0 0
0.3125 0 0
0.3125 0 0
0.3125 0 0
0.3125 0 0
0 0 0
0 0 0
0 0 0
0 0 0
0 0 0
0 0 0
0 0 0
0 0 0
0 0 0
0 0 0
0.03125 0 0
0.03125 0 0
0.03125 0 0
0.03125 0 0
0.03125 0 0
0.03125 0 0
0.03125 0 0
0.03125 0 0
0.03125 0 0
0.03125 0 0
0.03125 0 0
0.03125 0 0
0.03125 0 0
0.03125 0 0
0.03125 0 0
0.03125 0 0
0.03125 0 0
0.03125 0 0
0.03125 0 0
0.03125 0 0
0.03125 0 0
0.03125 0 0
0.03125 0 0
0.03125 0 0
0.03125 0 0
0.03125 0 0
0.4375 0 0
0.4375 0 0
0.25 0 0
0.25 0 0
0.25 0 0
0.25 0 0
0.25 0 0
0.25 0 0
0.25 0 0
0.25 0 0
0.25 0 0
0.25 0 0
0.3125 0 0
0.3125 0 0
0.3125 0 0
0.3125 0 0
0.3125 0 0
0.3125 0 0
0.3125 0 0
0.3125 0 0
0.3125 0 0
0.3125 0 0
0.3125 0 0
0.3125 0 0
0.3125 0 0
0.3125 0 0
0.3125 0 0
0.3125 0 0
0.3125 0 0
0.3125 0 0
0.3125 0 0
0.3125 0 0
0.3125 0 0
0.3125 0 0
0.3125 0 0
0.3125 0 0
0.3125 0 0
0.3125 0 0
0.3125 0 0
0.3125 0 0
0 0 0
0 0 0
0 0 0
0 0 0
0 0 0
0 0 0
0 0 0
0 0 0
0 0 0
0 0 0
0.03125 0 0
0.03125 0 0
0.03125 0 0
0.03125 0 0
0.03125 0 0
0.03125 0 0
0.03125 0 0
0.03125 0 0
0.03125 0 0
0.03125 0 0
0.03125 0 0
0.03125 0 0
0.03125 0 0
0.03125 0 0
0.03125 0 0
0.03125 0 0
0.03125 0 0
0.03125 0 0
0.03125 0 0
0.03125 0 0
0.03125 0 0
0.03125 0 0
0.03125 0 0
0.03125 0 0
0.03125 0 0
0.03125 0 0
0.4375 0 0
0.4375 0 0
0.25 0 0
0.25 0 0
0.25 0 0
0.25 0 0
0.25 0 0
0.25 0 0
0.25 0 0
0.25 0 0
0.25 0 0
0.25 0 0
0.3125 0 0
0.3125 0 0
0.3125 0 0
0.3125 0 0
0.3125 0 0
0.3125 0 0
0.3125 0 0
0.3125 0 0
0.3125 0 0
0.3125 0 0
0.3125 0 0
0.3125 0 0
0.3125 0 0
0.3125 0 0
0.3125 0 0
0.3125 0 0
0.3125 0 0
0.3125 0 0
0.3125 0 0
0.3125 0 0
0.3125 0 0
0.3125 0 0
0.3125 0 0
0.3125 0 0
0.3125 0 0
0.3125 0 0
0.3125 0 0
0.3125 0 0
0 0 0
0 0 0
0 0 0
0 0 0
0 0 0
0 0 0
0 0 0
0 0 0
0 0 0
0 0 0
0.03125 0 0
0.03125 0 0
0.03125 0 0
0.03125 0 0
0.03125 0 0
0.03125 0 0
0.03125 0 0
0.03125 0 0
0.03125 0 0
0.03125 0 0
0.03125 0 0
0.03125 0 0
0.03125 0 0
0.03125 0 0
0.03125 0 0
0.03125 0 0
0.03125 0 0
0.03125 0 0
0.03125 0 0
0.03125 0 0
0.03125 0 0
0.03125 0 0
0.03125 0 0
0.03125 0 0
0.03125 0 0
0.03125 0 0
0.4375 0 0
0.4375 0 0
0.25 0 0
0.25 0 0
0.25 0 0
0.25 0 0
0.25 0 0
0.25 0 0
0.25 0 0
0.25 0 0
0.25 0 0
0.25 0 0
0.3125 0 0
0.3125 0 0
0.3125 0 0
0.3125 0 0
0.3125 0 0
0.3125 0 0
0.3125 0 0
0.3125 0 0
0.3125 0 0
0.3125 0 0
0.3125 0 0
0.3125 0 0
0.3125 0 0
0.3125 0 0
0.3125 0 0
0.3125 0 0
0.3125 0 0
0.3125 0 0
0.3125 0 0
0.3125 0 0
0.3125 0 0
0.3125 0 0
0.3125 0 0
0.3125 0 0
0.3125 0 0
0.3125 0 0
0.3125 0 0
0.3125 0 0
0 0 0
0 0 0
0 0 0
0 0 0
0 0 0
0 0 0
0 0 0
0 0 0
0 0 0
0 0 0
0.03125 0 0
0.03125 0 0
0.03125 0 0
0.03125 0 0
0.03125 0 0
0.03125 0 0
0.03125 0 0
0.03125 0 0
0.03125 0 0
0.03125 0 0
0.03125 0 0
0.03125 0 0
0.03125 0 0
0.03125 0 0
0.03125 0 0
0.03125 0 0
0.03125 0 0
0.03125 0 0
0.03125 0 0
0.03125 0 0
0.03125 0 0
0.03125 0 0
0.03125 0 0
0.03125 0 0
0.03125 0 0
0.03125 0 0
0.4375 0 0
0.4375 0 0
0.25 0 0
0.25 0 0
0.25 0 0
0.25 0 0
0.25 0 0
0.25 0 0
0.25 0 0
0.25 0 0
0.25 0 0
0.25 0 0
0.3125 0 0
0.3125 0 0
0.3125 0 0
0.3125 0 0
0.3125 0 0
0.3125 0 0
0.3125 0 0
0.3125 0 0
0.3125 0 0
0.3125 0 0
0.3125 0 0
0.3125 0 0
0.3125 0 0
0.3125 0 0
0.3125 0 0
0.3125 0 0
0.3125 0 0
0.3125 0 0
0.3125 0 0
0.3125 0 0
0.3125 0 0
0.3125 0 0
0.3125 0 0
0.3125 0 0
0.3125 0 0
0.3125 0 0
0.3125 0 0
0.3125 0 0
0 0 0
0 0 0
0 0 0
0 0 0
0 0 0
0 0 0
0 0 0
0 0 0
0 0 0
0 0 0
0.03125 0 0
0.03125 0 0
0.03125 0 0
0.03125 0 0
0.03125 0 0
0.03125 0 0
0.03125 0 0
0.03125 0 0
0.03125 0 0
0.03125 0 0
0.03125 0 0
0.03125 0 0
0.03125 0 0
0.03125 0 0
0.03125 0 0
0.03125 0 0
0.03125 0 0
0.03125 0 0
0.03125 0 0
0.03125 0 0
0.03125 0 0
0.03125 0 0
0.03125 0 0
0.03125 0 0
0.03125 0 0
0.03125 0 0
0.4375 0 0
0.4375 0 0
0.25 0 0
0.25 0 0
0.25 0 0
0.25 0 0
0.25 0 0
0.25 0 0
0.25 0 0
0.25 0 0
0.25 0 0
0.25 0 0
0.3125 0 0
0.3125 0 0
0.3125 0 0
0.3125 0 0
0.3125 0 0
0.3125 0 0
0.3125 0 0
0.3125 0 0
0.3125 0 0
0.3125 0 0
0.3125 0 0
0.3125 0 0
0.3125 0 0
0.3125 0 0
0.3125 0 0
0.3125 0 0
0.3125 0 0
0.3125 0 0
0.3125 0 0
0.3125 0 0
0.3125 0 0
0.3125 0 0
0.3125 0 0
0.3125 0 0
0.3125 0 0
0.3125 0 0
0.3125 0 0
0.3125 0 0
0 0 0
0 0 0
0 0 0
0 0 0
0 0 0
0 0 0
0 0 0
0 0 0
0 0 0
0 0 0
0.03125 0 0
0.03125 0 0
0.03125 0 0
0.03125 0 0
0.03125 0 0
0.03125 0 0
0.03125 0 0
0.03125 0 0
0.03125 0 0
0.03125 0 0
0.03125 0 0
0.03125 0 0
0.03125 0 0
0.03125 0 0
0.03125 0 0
0.03125 0 0
0.03125 0 0
0.03125 0 0
0.03125 0 0
0.03125 0 0
0.03125 0 0
0.03125 0 0
0.03125 0 0
0.03125 0 0
0.03125 0 0
0.03125 0 0
