Created on Thu Feb 05 20:41:19 2026 

        1776 atoms
        2048 bonds
        3872 angles
        4896 dihedrals
        1344 impropers

          10 atom types
          37 bond types
          86 angle types
          11 dihedral types
           1 improper types
           0.000000  43.988980 xlo xhi
           0.000000  43.794556 ylo yhi
           0.000000  36.361433 zlo zhi
           7.149502  20.786635  14.983655 xy xz yz

Masses

    1     1.007940000 # H_
    2    12.010700000 # C_R
    3    12.010700000 # C_3
    4    12.010700000 # C_1
    5    14.006700000 # N_R
    6    15.999400000 # O_3
    7    15.999400000 # O_R
    8    14.006700000 # N_3
    9    65.380000000 # Zn3+2
   10    15.999400000 # O_2

Bond Coeffs

    1      331.069389        1.109401  # C_3 H_
    2      532.572607        0.946822  # C_3 H_
    3      357.440381        1.081418  # C_R H_
    4      478.199965        0.981428  # C_R H_
    5      462.655054        1.379256  # C_R C_R
    6      663.718927        1.345073  # N_R C_R
    7      769.136706        1.238254  # O_3 C_R
    8      572.510195        1.366311  # O_3 C_R
    9      349.795899        1.514000  # C_3 C_3
   10      467.763959        1.374217  # C_3 C_3
   11      693.148138        1.205375  # C_1 C_1
   12      660.350404        1.225009  # C_R C_1
   13      410.805866        1.435000  # C_R C_1
   14      387.667471        1.463000  # C_1 C_3
   15      539.248552        1.393845  # O_3 C_3
   16      929.109299        1.322497  # N_R N_R
   17      222.136087        1.707028  # Zn3+2 N_R
   18      165.837318        1.881712  # Zn3+2 N_R
   19      431.209430        1.412000  # C_1 C_1
   20      646.680887        1.311940  # O_R C_R
   21      260.032006        1.566180  # Zn3+2 O_R
   22      160.291409        1.840266  # Zn3+2 O_R
   23      422.328096        1.022927  # C_R H_
   24      707.973825        0.947107  # N_3 H_
   25      527.945261        1.044419  # N_3 H_
   26      391.168431        1.049398  # C_3 H_
   27      391.669513        1.458000  # C_R C_R
   28      560.312976        1.423192  # N_3 C_R
   29      369.943935        1.486000  # C_3 C_R
   30      707.797763        1.316550  # N_3 C_3
   31      528.634538        1.451071  # N_3 C_3
   32      624.610022        0.987495  # N_3 H_
   33      442.916768        1.006825  # C_3 H_
   34      902.568530        1.214079  # N_3 C_R
   35      562.279857        1.292449  # C_3 C_3
   36      215.517116        1.667337  # Zn3+2 O_R
   37      172.603617        1.795426  # O_2 Zn3+2

Angle Coeffs

    1              cosine/periodic      153.699352              -1               3 # C_R C_R N_R
    2              cosine/periodic      156.115900              -1               3 # C_R C_R O_3
    3              cosine/periodic      216.409606              -1               3 # N_R C_R O_3
    4              cosine/periodic      135.781731              -1               3 # C_R C_R O_3
    5              cosine/periodic      187.573643              -1               3 # N_R C_R O_3
    6                      fourier      117.318683        0.343737        0.374972        0.281246 # H_ C_3 C_3
    7                      fourier      141.513356        0.343737        0.374972        0.281246 # H_ C_3 C_3
    8                      fourier      245.761914        0.343737        0.374972        0.281246 # C_3 C_3 C_3
    9                      fourier      214.211821        0.343737        0.374972        0.281246 # C_3 C_3 C_3
   10                      fourier      134.565722        0.343737        0.374972        0.281246 # H_ C_3 C_3
   11              cosine/periodic       84.560540               1               1 # C_1 C_1 C_R
   12              cosine/periodic       65.947088               1               1 # C_1 C_1 C_R
   13                      fourier      225.286699        0.343737        0.374972        0.281246 # C_3 C_3 C_1
   14              cosine/periodic       63.892792               1               1 # C_1 C_1 C_3
   15              cosine/periodic       57.289016              -1               3 # H_ C_R C_R
   16              cosine/periodic       79.786967              -1               3 # H_ C_R N_R
   17              cosine/periodic       63.733053              -1               3 # H_ C_R C_R
   18              cosine/periodic       89.050455              -1               3 # H_ C_R N_R
   19              cosine/periodic      131.666195              -1               3 # C_R C_R C_1
   20              cosine/periodic      111.297508              -1               3 # C_R C_R C_R
   21              cosine/periodic      104.760596              -1               3 # C_R C_R C_1
   22                      fourier       75.498766        0.343737        0.374972        0.281246 # H_ C_3 H_
   23                      fourier      165.777838        0.343737        0.374972        0.281246 # H_ C_3 O_3
   24                      fourier      290.032745        0.343737        0.374972        0.281246 # C_3 C_3 O_3
   25                      fourier       93.755254        0.343737        0.374972        0.281246 # H_ C_3 H_
   26              cosine/periodic      163.738922              -1               3 # C_R N_R N_R
   27              cosine/periodic       55.194478              -1               3 # C_R N_R Zn3+2
   28              cosine/periodic       74.893338              -1               3 # N_R N_R Zn3+2
   29              cosine/periodic       45.889625              -1               3 # C_R N_R Zn3+2
   30              cosine/periodic       62.131512              -1               3 # N_R N_R Zn3+2
   31                      fourier      367.348279        0.300235        0.267331        0.266745 # C_R O_3 C_3
   32                      fourier      320.948910        0.300235        0.267331        0.266745 # C_R O_3 C_3
   33              cosine/periodic       67.700926               1               1 # C_1 C_1 C_1
   34              cosine/periodic      135.228956              -1               3 # C_1 C_R O_R
   35              cosine/periodic      187.136328              -1               3 # O_R C_R O_R
   36              cosine/periodic       83.018187              -1               3 # C_R O_R Zn3+2
   37              cosine/periodic       60.877639              -1               3 # C_R O_R Zn3+2
   38              cosine/periodic      131.755710              -1               3 # C_R C_R O_R
   39              cosine/periodic       60.991190              -1               3 # H_ C_R C_R
   40              cosine/periodic      102.183280              -1               3 # C_R C_R C_R
   41              cosine/periodic      141.184763              -1               3 # C_R C_R N_3
   42              cosine/periodic       99.137149              -1               3 # C_R C_R C_3
   43                      fourier      241.751431        0.343737        0.374972        0.281246 # H_ C_3 N_3
   44                      fourier      203.587623        0.343737        0.374972        0.281246 # H_ C_3 N_3
   45                      fourier      169.780468        0.343737        0.374972        0.281246 # H_ C_3 N_3
   46                      fourier       89.204060        0.343737        0.374972        0.281246 # H_ C_3 H_
   47                      fourier      128.546224        0.343737        0.374972        0.281246 # H_ C_3 C_R
   48                      fourier      123.639297        0.343737        0.374972        0.281246 # H_ C_3 C_3
   49                      fourier      220.229931        0.343737        0.374972        0.281246 # C_R C_3 C_3
   50                      fourier       81.852077        0.343737        0.374972        0.281246 # H_ C_3 H_
   51                      fourier      121.777217        0.343737        0.374972        0.281246 # H_ C_3 C_R
   52                      fourier      164.159482        0.317506        0.313225        0.272502 # H_ N_3 C_R
   53                      fourier      193.828028        0.317506        0.313225        0.272502 # H_ N_3 C_3
   54                      fourier      309.099222        0.317506        0.313225        0.272502 # C_R N_3 C_3
   55                      fourier      150.574599        0.317506        0.313225        0.272502 # H_ N_3 C_R
   56                      fourier      144.695053        0.317506        0.313225        0.272502 # H_ N_3 C_3
   57                      fourier      268.482172        0.317506        0.313225        0.272502 # C_R N_3 C_3
   58                      fourier      158.514266        0.317506        0.313225        0.272502 # H_ N_3 C_R
   59                      fourier      152.055842        0.317506        0.313225        0.272502 # H_ N_3 C_3
   60              cosine/periodic      144.065775              -1               3 # C_R C_R O_R
   61              cosine/periodic      177.285488              -1               3 # C_R C_R N_3
   62                      fourier      179.591840        0.343737        0.374972        0.281246 # H_ C_3 N_3
   63                      fourier      150.418532        0.343737        0.374972        0.281246 # H_ C_3 C_3
   64                      fourier      253.437317        0.343737        0.374972        0.281246 # C_R C_3 C_3
   65                      fourier      158.102149        0.343737        0.374972        0.281246 # H_ C_3 C_3
   66                      fourier      274.759919        0.343737        0.374972        0.281246 # C_R C_3 C_3
   67                      fourier       86.635549        0.343737        0.374972        0.281246 # H_ C_3 H_
   68                      fourier      177.001330        0.343737        0.374972        0.281246 # H_ C_3 C_3
   69                      fourier      203.740794        0.317506        0.313225        0.272502 # H_ N_3 C_R
   70                      fourier      331.407226        0.317506        0.313225        0.272502 # C_R N_3 C_3
   71              cosine/periodic       73.965995              -1               3 # C_R O_R Zn3+2
   72                      fourier      172.607259        0.343737        0.374972        0.281246 # O_R Zn3+2 O_R
   73                      fourier      179.021796        0.343737        0.374972        0.281246 # O_R Zn3+2 O_2
   74                      fourier      226.785028        0.343737        0.374972        0.281246 # N_R Zn3+2 N_R
   75                      fourier      212.686386        0.343737        0.374972        0.281246 # N_R Zn3+2 O_R
   76                      fourier      221.281016        0.343737        0.374972        0.281246 # N_R Zn3+2 O_2
   77                      fourier      184.568655        0.343737        0.374972        0.281246 # N_R Zn3+2 O_R
   78                      fourier      191.250395        0.343737        0.374972        0.281246 # N_R Zn3+2 O_2
   79              cosine/periodic       23.613368              -1               3 # Zn3+2 O_2 Zn3+2
   80                      fourier      197.524216        0.343737        0.374972        0.281246 # N_R Zn3+2 N_R
   81                      fourier      215.088089        0.343737        0.374972        0.281246 # O_R Zn3+2 O_R
   82                      fourier      224.576586        0.343737        0.374972        0.281246 # O_R Zn3+2 O_2
   83                      fourier      206.732396        0.343737        0.374972        0.281246 # O_R Zn3+2 O_2
   84                      fourier      211.482198        0.343737        0.374972        0.281246 # O_R Zn3+2 N_R
   85                      fourier      128.170920        0.343737        0.374972        0.281246 # H_ C_3 C_3
   86                      fourier      259.917907        0.343737        0.374972        0.281246 # C_3 C_3 C_1

Dihedral Coeffs

    1        3.368555              -1               2 # C_1 C_R C_R N_R
    2        9.743388              -1               2 # C_3 O_3 C_R C_R
    3        2.500000              -1               2 # C_3 O_3 C_R C_R
    4        0.117722               1               3 # H_ C_3 C_3 H_
    5        0.343107               1               2 # C_R O_3 C_3 H_
    6        6.737110              -1               2 # Zn3+2 O_R C_R C_1
    7        1.250000              -1               2 # C_R C_R C_R O_R
    8        0.833333              -1               2 # H_ C_3 C_R C_R
    9        0.081375               1               3 # H_ N_3 C_3 H_
   10        0.250000               1               3 # C_R C_R N_3 H_
   11        6.990249              -1               2 # H_ N_3 C_R C_R

Improper Coeffs

    1        2.000000        1.000000       -1.000000        0.000000               0 # C_R C_R N_R O_3

Pair Coeffs

    1        0.044000        2.571134 # H_ H_
    2        0.105000        3.430851 # C_R C_R
    3        0.105000        3.430851 # C_3 C_3
    4        0.105000        3.430851 # C_1 C_1
    5        0.069000        3.260689 # N_R N_R
    6        0.060000        3.118146 # O_3 O_3
    7        0.060000        3.118146 # O_R O_R
    8        0.069000        3.260689 # N_3 N_3
    9        0.124000        2.461553 # Zn3+2 Zn3+2
   10        0.060000        3.118146 # O_2 O_2

Atoms

       1      444        1     0.00000   15.02599    6.68692    7.58589
       2      444        1     0.00000   16.83617   11.15454    8.48955
       3      444        1     0.00000   17.64886    7.54783    6.97079
       4      444        1     0.00000   14.16814   10.29578    9.07319
       5      444        1     0.00000   15.24430    7.88112   10.14410
       6      444        1     0.00000   16.59171    9.95913    5.90939
       7      444        1     0.00000   10.44037    7.52591    5.51660
       8      444        1     0.00000   21.77322    8.04056    9.81842
       9      444        1     0.00000   14.77142    8.05926    2.91746
      10      444        1     0.00000   14.76891    9.67586    3.75428
      11      444        1     0.00000   15.26473   10.80656    1.61586
      12      444        1     0.00000   16.51384    9.56780    2.02677
      13      444        1     0.00000   15.27585    9.21244    0.76293
      14      444        1     0.00000   17.20695    6.76577   11.68021
      15      444        1     0.00000   17.86208    8.08634   12.77172
      16      444        1     0.00000   16.97160    6.92472   14.73502
      17      444        1     0.00000   15.66508    7.16735   13.51833
      18      444        1     0.00000   19.99586   27.43468   13.70896
      19      444        2     0.00000   12.34346    8.44504    3.02302
      20      444        2     0.00000   19.93355    6.73429   12.22150
      21      444        3     0.00000   16.85827    8.16989    7.44146
      22      444        3     0.00000   14.96662    9.67698    8.61315
      23      444        3     0.00000   15.43860    7.69731    7.79236
      24      444        3     0.00000   16.41074   10.15257    8.27326
      25      444        4     0.00000   13.03014    8.63561    5.43004
      26      444        4     0.00000   18.99201    8.09718   10.29430
      27      444        3     0.00000   16.30088    9.49038    6.87314
      28      444        3     0.00000   15.53643    8.35255    9.18221
      29      444        3     0.00000   14.88849    9.01484    7.23300
      30      444        3     0.00000   16.94946    8.82586    8.82248
      31      444        4     0.00000   13.81695    8.90419    6.28140
      32      444        4     0.00000   18.08677    8.51764    9.64599
      33      444        2     0.00000   10.94841    7.64104    4.56814
      34      444        2     0.00000   21.35642    7.54828   10.68436
      35      444        2     0.00000   12.19291    8.19182    4.38089
      36      444        2     0.00000   20.02944    7.50136   11.05023
      37      444        3     0.00000   14.53755    9.14529    2.80774
      38      444        3     0.00000   15.45298    9.71856    1.73471
      39      444        3     0.00000   17.65120    6.99638   12.67203
      40      444        3     0.00000   16.61541    6.63053   13.72583
      41      444        5     0.00000   11.21392    8.05075    2.41734
      42      444        5     0.00000   10.35166    7.56127    3.37372
      43      444        5     0.00000   22.04861    6.87630   11.60868
      44      444        5     0.00000   21.18635    6.38682   12.56507
      45      444        6     0.00000   13.19156    9.37859    2.44349
      46      444        6     0.00000   18.81240    6.21751   12.86343
      47      444        4     0.00000   23.26160   22.17453   15.93470
      48      444        4     0.00000   23.13879   21.74033   17.26544
      49      444        2     0.00000   12.51567   13.43605    1.57478
      50      444        2     0.00000   23.49141   22.98699   13.44465
      51      444        4     0.00000   23.36659   22.54565   14.79688
      52      444        4     0.00000   12.64049   13.87739    0.22256
      53      444        7     0.00000   22.90392   24.06734   13.07932
      54      444        7     0.00000   11.81832   14.12800    2.39982
      55      444        7     0.00000   24.18875   22.29504   12.61961
      56      444        7     0.00000   13.10316   12.35569    1.94011
      57      444        1     0.00000   19.76297   13.25501   17.45386
      58      444        1     0.00000   23.49272    8.84996   15.52075
      59      444        1     0.00000    9.16521    7.37622    1.13412
      60      444        1     0.00000   23.64527    7.40184   13.57547
      61      444        1     0.00000   13.00601    5.60916    3.93302
      62      444        1     0.00000   12.23053    3.86919    5.38581
      63      444        1     0.00000   11.11923    3.27850    4.10047
      64      444        1     0.00000   10.72912    4.79687    5.00282
      65      444        1     0.00000   19.28720    9.75308   11.61080
      66      444        1     0.00000   17.65588    8.02605   11.62292
      67      444        1     0.00000   17.97304    8.43510   13.35153
      68      444        1     0.00000   18.75489    6.98245   12.59722
      69      444        1     0.00000   14.12086    4.70275    0.00349
      70      444        1     0.00000   14.48891    4.81378    1.77266
      71      444        1     0.00000   14.99503    3.36757    0.82179
      72      444        1     0.00000   12.88649    2.94714    2.24894
      73      444        1     0.00000   12.68465    2.64201    0.53002
      74      444        1     0.00000   21.18929   12.41651   14.42612
      75      444        1     0.00000   20.48443   12.36906   12.78004
      76      444        1     0.00000   19.56409   13.09036   14.16996
      77      444        1     0.00000   18.73184   10.78329   13.45152
      78      444        1     0.00000   19.15335   10.91101   15.15565
      79      444        2     0.00000   21.84463    7.03835   11.58300
      80      444        2     0.00000   10.54375    7.41971    3.50391
      81      444        2     0.00000    9.99832    5.67117    0.13729
      82      444        2     0.00000   22.69507    8.85271   14.81347
      83      444        2     0.00000    9.87710    6.56788    1.21186
      84      444        2     0.00000   22.76619    8.01459   13.70195
      85      444        2     0.00000   10.66117    6.42089    2.37060
      86      444        2     0.00000   21.73315    7.97849   12.75578
      87      444        2     0.00000   11.57211    5.30778    2.41127
      88      444        2     0.00000   20.63213    8.87608   12.92739
      89      444        2     0.00000   11.75352    4.47989    1.27466
      90      444        2     0.00000   20.62048    9.80091   14.01689
      91      444        2     0.00000   10.94600    4.65266    0.14296
      92      444        2     0.00000   21.62662    9.72206   14.99959
      93      444        4     0.00000   21.47001   11.28160   17.15870
      94      444        4     0.00000   21.57404   10.55636   16.19326
      95      444        3     0.00000   11.55027    4.18868    4.56949
      96      444        3     0.00000   18.42633    8.02951   12.42219
      97      444        3     0.00000   12.86137    3.45190    1.26648
      98      444        3     0.00000   14.19734    4.12659    0.95038
      99      444        3     0.00000   19.59124   10.91346   14.13439
     100      444        3     0.00000   20.24755   12.27417   13.86111
     101      444        8     0.00000   12.29156    4.95223    3.58783
     102      444        8     0.00000   19.54838    8.84277   12.00756
     103      444        7     0.00000   20.98230    7.27821   10.58405
     104      444        7     0.00000   11.42794    7.21086    4.48485
     105      444        7     0.00000   22.80330    6.07621   11.63849
     106      444        7     0.00000    9.60694    8.41286    3.43042
     107      444        1     0.00000    8.17328   15.27352    6.94953
     108      444        1     0.00000   28.05488   20.88014    7.96871
     109      444        1     0.00000    8.00676   13.62389    5.16250
     110      444        1     0.00000   28.12911   22.63841    9.70926
     111      444        1     0.00000    5.67370   16.50267    1.80933
     112      444        1     0.00000   25.28286   16.39499    1.91852
     113      444        1     0.00000   25.36022   16.27531    3.71354
     114      444        1     0.00000    3.84408   14.85944    2.69146
     115      444        1     0.00000   31.30092   19.42430   12.60275
     116      444        1     0.00000   29.85419   19.05784   14.48661
     117      444        1     0.00000   29.07551   18.21790   13.09398
     118      444        1     0.00000   28.49876   19.84840   13.60859
     119      444        1     0.00000    7.60858   19.31943    5.04578
     120      444        1     0.00000    7.00431   19.31549    3.34809
     121      444        1     0.00000    6.34370   20.48292    4.56503
     122      444        1     0.00000   26.78905   18.47857    4.02529
     123      444        1     0.00000   27.12471   18.74056    5.73162
     124      444        1     0.00000   10.13625   18.30751    8.92606
     125      444        1     0.00000   10.59085   18.84225   10.59448
     126      444        1     0.00000   10.61507   17.09169   10.16761
     127      444        1     0.00000   30.56105   17.59609   11.48616
     128      444        1     0.00000    8.14619   17.08896    9.86931
     129      444        8     0.00000   30.35642   19.83144   12.59978
     130      444        2     0.00000   29.28193   22.54761   12.18849
     131      444        2     0.00000    6.66313   13.79772    2.81132
     132      444        2     0.00000    7.57664   15.49198    6.09361
     133      444        2     0.00000   28.58381   20.71479    8.88991
     134      444        2     0.00000    7.46982   14.55728    5.06226
     135      444        2     0.00000   28.61956   21.70265    9.88672
     136      444        2     0.00000    6.70657   14.82777    3.91315
     137      444        2     0.00000   29.24963   21.47212   11.11720
     138      444        2     0.00000    6.03680   16.09829    3.84046
     139      444        2     0.00000   29.84041   20.18220   11.32195
     140      444        2     0.00000    6.18759   17.04831    4.88740
     141      444        2     0.00000   29.88132   19.22353   10.26943
     142      444        2     0.00000    6.94497   16.72541    6.02435
     143      444        2     0.00000   29.22367   19.49206    9.06030
     144      444        4     0.00000    7.08623   17.67194    7.11987
     145      444        4     0.00000    7.16039   18.50182    7.99798
     146      444        3     0.00000   25.85540   15.96694    2.76810
     147      444        3     0.00000   29.39625   19.20457   13.48785
     148      444        3     0.00000    5.60727   18.44283    4.77317
     149      444        3     0.00000    6.70824   19.44705    4.41047
     150      444        3     0.00000    8.62401   17.91366   10.43888
     151      444        3     0.00000   10.08120   18.05098   10.00551
     152      444        8     0.00000    5.22001   16.46161    2.73287
     153      444        7     0.00000   29.82796   22.12650   13.33404
     154      444        7     0.00000    6.13819   14.23195    1.65802
     155      444        7     0.00000   28.79773   23.79684   11.91397
     156      444        7     0.00000    7.16841   12.56160    3.07808
     157      444        2     0.00000   27.28569    5.64393   10.41295
     158      444        2     0.00000    5.11621    8.80681    4.56493
     159      444        4     0.00000    5.15679    8.12618    5.81614
     160      444        4     0.00000    5.18964    7.55512    6.87053
     161      444        4     0.00000    5.22546    6.88897    8.10363
     162      444        4     0.00000   27.24924    6.32026    9.15941
     163      444        7     0.00000   28.02080    4.60403   10.53715
     164      444        7     0.00000   26.58509    6.08554   11.39138
     165      444        7     0.00000    5.82322    8.37041    3.58945
     166      444        7     0.00000    4.38648    9.85289    4.44424
     167      444        9     0.00000    9.17144   12.57191    2.10606
     168      444        9     0.00000    7.35384    9.99788    2.31238
     169      444        9     0.00000   10.49680    9.69819    2.50133
     170      444        9     0.00000    8.92343   11.06441    4.87503
     171      444       10     0.00000    8.98638   10.83315    2.94873
     172      444       10     0.00000   26.99429   25.56465   12.08241
     173      444        9     0.00000   28.75180   25.95151   12.56896
     174      444        9     0.00000   26.97214   23.71104   11.89156
     175      444        9     0.00000   25.76571   26.15653   13.35247
     176      444        9     0.00000   22.91314    4.54263   10.51629
     177      444        1     0.00000   32.93847   21.93397   16.98185
     178      444        1     0.00000   14.28548   25.43022   16.16721
     179      444        1     0.00000   13.49934   21.52498   15.84087
     180      444        1     0.00000   33.67695   25.85008   17.28280
     181      444        1     0.00000   23.70638   16.09493    0.78559
     182      444        1     0.00000   13.09501   23.78057   14.16536
     183      444        1     0.00000   28.55383   23.88527   15.25525
     184      444        1     0.00000   18.07446   21.13537   17.90936
     185      444        1     0.00000   10.13465   22.00322   12.17742
     186      444        1     0.00000   10.85328   23.65633   12.43142
     187      444        1     0.00000   11.21079   23.89697   10.00008
     188      444        1     0.00000   12.03638   22.43150   10.65918
     189      444        1     0.00000   10.50395   22.25617    9.72264
     190      444        1     0.00000   25.47585   14.76407    2.38354
     191      444        1     0.00000    4.76124   15.97076    2.90344
     192      444        1     0.00000   25.98732   15.80763    5.22289
     193      444        1     0.00000   24.60075   16.19993    4.14134
     194      444        1     0.00000   24.79572   14.51918    4.77514
     195      444        2     0.00000   30.05348   23.30426   12.40956
     196      444        2     0.00000    6.09127   13.83380    2.60991
     197      444        3     0.00000   13.08446   22.50368   16.16263
     198      444        3     0.00000   34.10250   24.87406   16.96909
     199      444        3     0.00000   33.69760   22.72400   16.79923
     200      444        3     0.00000   13.51521   24.64995   16.33921
     201      444        4     0.00000   31.27806   23.84960   14.53197
     202      444        4     0.00000    5.25410   14.88760    0.45430
     203      444        3     0.00000   12.88565   23.73408   15.25490
     204      444        3     0.00000   34.31157   23.63561   17.87748
     205      444        3     0.00000   33.50646   23.95137   15.90011
     206      444        3     0.00000   13.69063   23.41614   17.23306
     207      444        4     0.00000   32.27680   24.01162   15.15829
     208      444        4     0.00000   14.81340   22.92618   17.98536
     209      444        2     0.00000   28.84853   23.53978   14.27305
     210      444        2     0.00000    7.32682   13.59856    0.74765
     211      444        2     0.00000   30.13129   23.49937   13.78304
     212      444        2     0.00000    6.17496   14.16369    1.24843
     213      444        3     0.00000   10.25609   23.02414   11.74245
     214      444        3     0.00000   11.04887   22.89426   10.44914
     215      444        3     0.00000    4.18434   15.06136    3.19082
     216      444        3     0.00000   25.34019   15.41571    4.41079
     217      444        5     0.00000   28.75296   23.22799   12.09177
     218      444        5     0.00000   28.01097   23.38051   13.24240
     219      444        5     0.00000    7.94296   12.98460    1.76178
     220      444        5     0.00000    7.20097   13.13712    2.91240
     221      444        6     0.00000   31.01298   23.65011   11.46807
     222      444        6     0.00000    5.03333   13.97788    3.50217
     223      444        1     0.00000   25.41930   14.17875   25.76661
     224      444        1     0.00000   27.22949   18.64637   26.67026
     225      444        1     0.00000   28.04217   15.03965   25.15151
     226      444        1     0.00000   24.56145   17.78761   27.25390
     227      444        1     0.00000   25.63762   15.37295   28.32482
     228      444        1     0.00000   26.98502   17.45095   24.09011
     229      444        1     0.00000   20.83368   15.01773   23.69732
     230      444        1     0.00000   32.16654   15.53239   27.99913
     231      444        1     0.00000   25.16474   15.55108   21.09818
     232      444        1     0.00000   25.16223   17.16769   21.93500
     233      444        1     0.00000   25.65805   18.29839   19.79658