# vtk DataFile Version 1.0
Cube
ASCII

DATASET POLYDATA
POINTS 708 float
14.292784 7.643478 0.566390
12.258834 7.507655 16.904687
15.820214 8.190299 12.093073
11.186219 7.528221 3.730765
15.676061 6.569976 13.492520
10.671269 5.923338 12.310020
0.560686 9.273831 5.215422
31.121766 9.273831 5.215422
11.237399 6.602889 10.014942
15.294088 8.494391 7.482333
10.367770 8.006509 5.644741
7.874514 5.733422 16.698285
3.166067 8.542184 0.540786
5.686276 4.819667 16.111385
5.285759 9.365013 1.203973
8.904036 6.715664 2.229549
2.171755 7.715799 15.061198
13.168439 5.054589 17.827675
13.779786 10.141698 17.739488
12.807939 13.739806 17.371617
12.972029 1.490241 0.913008
12.725948 12.355829 17.379701
12.924643 2.876575 0.938980
13.860448 11.591805 17.702351
13.183454 3.609809 17.805722
15.082926 12.228497 17.988978
13.095428 2.931391 16.581667
15.158206 13.612837 17.979173
14.083828 15.765947 17.705456
13.144892 1.546564 16.558908
14.019839 14.359057 17.678402
13.286915 0.845889 17.757036
14.108309 16.951714 17.731598
14.848141 8.899303 5.425840
11.667130 6.285107 12.091313
14.531000 8.453718 6.715893
11.994963 6.673115 10.784836
13.232586 7.976425 6.999304
13.288955 7.157841 10.496615
12.283432 7.963125 5.964438
14.221831 7.237753 11.542385
12.666102 8.372561 4.653079
13.864295 6.773626 12.842599
10.570153 7.111734 17.306113
0.560085 7.573814 0.041329
9.092932 7.195783 0.103809
8.142018 7.510687 17.879141
3.257884 6.781471 17.445105
5.226821 5.622048 16.676716
5.753127 8.586545 0.614645
3.841100 5.717605 16.735502
7.125277 8.554810 0.497661
3.623306 7.682538 0.061061
1.915172 7.192607 17.175548
7.388472 6.550997 17.214239
5.402493 7.627664 18.056704
6.009645 6.597060 17.303277
9.523498 6.934713 1.372360
1.576613 7.731645 15.960154
2.781172 4.443870 15.767335
10.388714 6.499661 15.507606
0.876448 7.606794 1.932181
8.140165 9.969388 1.311133
13.923981 8.854067 4.428859
12.592465 6.343493 13.087285
12.821671 7.530061 8.301692
13.696199 7.600648 9.192405
15.711452 8.380929 16.124579
11.671257 6.983856 18.063976
15.293628 8.263153 17.442368
10.841357 6.843896 1.314700
12.352271 5.694195 17.065084
14.168055 9.475849 0.446404
13.581871 5.640087 0.532864
12.938456 9.529956 16.978625
15.455396 7.791966 11.264276
11.805266 8.286302 3.581549
14.774426 6.720087 13.873165
10.995563 7.573485 6.275663
13.059659 0.888800 15.372994
11.704786 14.477357 17.079800
13.102198 0.798345 2.074991
11.533372 11.771164 17.105720
13.002753 3.522530 2.131654
15.796830 11.492354 0.182439
13.014613 3.607961 15.409932
15.924456 14.203801 0.196779
14.704859 7.665662 18.633458
12.670909 7.529839 34.971755
16.232289 8.212483 30.160140
11.598295 7.550405 21.797832
16.088136 6.592160 31.559588
11.083344 5.945522 30.377088
0.972761 9.296015 23.282489
31.533841 9.296015 23.282489
11.649474 6.625074 28.082010
15.706163 8.516575 25.549400
10.779845 8.028694 23.711809
8.286589 5.755606 34.765353
3.578142 8.564369 18.607854
6.098352 4.841851 34.178453
5.697834 9.387197 19.271040
9.316112 6.737849 20.296617
2.583831 7.737983 33.128266
13.580515 5.076774 35.894743
14.191861 10.163882 35.806556
13.220014 13.761990 35.438685
13.384104 1.512426 18.980076
13.138023 12.378013 35.446768
13.336719 2.898760 19.006048
14.272523 11.613990 35.769419
13.595529 3.631993 35.872789
15.495001 12.250681 36.056046
13.507504 2.953575 34.648735
15.570282 13.635021 36.046240
14.495904 15.788131 35.772524
13.556968 1.568749 34.625976
14.431914 14.381241 35.745469
13.698991 0.868073 35.824103
14.520385 16.973898 35.798665
15.260216 8.921487 23.492908
12.079206 6.307291 30.158380
14.943076 8.475902 24.782961
12.407038 6.695299 28.851904
13.644662 7.998609 25.066371
13.701031 7.180025 28.563682
12.695507 7.985310 24.031505
14.633906 7.259938 29.609452
13.078177 8.394745 22.720146
14.276370 6.795811 30.909667
10.982229 7.133918 35.373181
0.972161 7.595998 18.108396
9.505007 7.217967 18.170877
8.554093 7.532872 35.946209
3.669960 6.803655 35.512173
5.638897 5.644232 34.743784
6.165202 8.608729 18.681713
4.253175 5.739789 34.802570
7.537353 8.576994 18.564729
4.035382 7.704722 18.128129
2.327247 7.214791 35.242616
7.800548 6.573181 35.281307
4.990417 7.605480 -0.010363
5.814568 7.649848 36.123772
6.421720 6.619244 35.370345
9.935574 6.956897 19.439428
1.988689 7.753830 34.027222
3.193247 4.466055 33.834403
10.800789 6.521846 33.574673
1.288523 7.628979 19.999249
8.552240 9.991573 19.378201
14.336056 8.876251 22.495926
13.004541 6.365678 31.154353
13.233746 7.552245 26.368760
14.108275 7.622832 27.259472
16.123528 8.403113 34.191646
11.259182 6.961672 -0.003091
12.083332 7.006041 36.131044
15.705704 8.285337 35.509436
11.253432 6.866081 19.381767
12.764347 5.716380 35.132152
14.580131 9.498033 18.513471
13.993947 5.662271 18.599932
13.350531 9.552141 35.045693
15.867471 7.814150 29.331344
12.217341 8.308486 21.648617
15.186502 6.742271 31.940232
11.407638 7.595670 24.342731
13.471734 0.910985 33.440062
12.116862 14.499541 35.146868
13.514273 0.820529 20.142058
11.945447 11.793348 35.172787
13.414828 3.544715 20.198722
16.208905 11.514539 18.249506
13.426688 3.630145 33.477000
16.336532 14.225985 18.263846
15.107148 25.157645 0.566390
13.073198 25.021822 16.904687
16.634578 25.704467 12.093073
12.000584 25.042388 3.730765
16.490425 24.084144 13.492520
11.485633 23.437505 12.310020
1.375050 26.787998 5.215422
31.936130 26.787998 5.215422
12.051763 24.117057 10.014942
16.108452 26.008558 7.482333
11.182134 25.520677 5.644741
8.688878 23.247589 16.698285
3.980431 26.056352 0.540786
6.500640 22.333834 16.111385
6.100123 26.879180 1.203973
9.718400 24.229832 2.229549
2.986119 25.229966 15.061198
13.982803 22.568757 17.827675
14.594150 27.655865 17.739488
13.622303 31.253973 17.371617
13.786393 19.004409 0.913008
13.540312 29.869996 17.379701
13.739007 20.390743 0.938980
14.674812 29.105973 17.702351
13.997818 21.123976 17.805722
15.897290 29.742664 17.988978
13.909792 20.445558 16.581667
15.972571 31.127004 17.979173
14.898192 33.280114 17.705456
13.959256 19.060732 16.558908
14.834203 31.873224 17.678402
14.101279 18.360056 17.757036
14.922673 34.465882 17.731598
15.662505 26.413470 5.425840
12.481494 23.799274 12.091313
15.345364 25.967885 6.715893
12.809327 24.187282 10.784836
14.046950 25.490593 6.999304
14.103320 24.672008 10.496615
13.097796 25.477293 5.964438
15.036195 24.751921 11.542385
13.480466 25.886728 4.653079
14.678659 24.287794 12.842599
11.384517 24.625901 17.306113
1.374449 25.087981 0.041329
9.907296 24.709950 0.103809
8.956382 25.024855 17.879141
4.072248 24.295638 17.445105
6.041185 23.136215 16.676716
6.567491 26.100712 0.614645
4.655464 23.231772 16.735502
7.939641 26.068977 0.497661
4.437670 25.196705 0.061061
2.729536 24.706774 17.175548
8.202836 24.065164 17.214239
6.216857 25.141831 18.056704
6.824009 24.111227 17.303277
10.337862 24.448880 1.372360
2.390977 25.245813 15.960154
3.595536 21.958038 15.767335
11.203078 24.013829 15.507606
1.690812 25.120962 1.932181
8.954529 27.483556 1.311133
14.738345 26.368234 4.428859
13.406829 23.857661 13.087285
13.636035 25.044228 8.301692
14.510563 25.114815 9.192405
16.525816 25.895096 16.124579
12.485621 24.498024 18.063976
16.107992 25.777320 17.442368
11.655721 24.358064 1.314700
13.166636 23.208363 17.065084
14.982419 26.990017 0.446404
14.396235 23.154255 0.532864
13.752820 27.044124 16.978625
16.269760 25.306134 11.264276
12.619630 25.800469 3.581549
15.588791 24.234254 13.873165
11.809927 25.087653 6.275663
13.874023 18.402968 15.372994
12.519150 31.991524 17.079800
13.916562 18.312512 2.074991
12.347736 29.285331 17.105720
13.817117 21.036698 2.131654
16.611194 29.006522 0.182439
13.828977 21.122128 15.409932
16.738820 31.717968 0.196779
15.519224 25.179829 18.633458
13.485273 25.044006 34.971755
17.046654 25.726651 30.160140
12.412659 25.064572 21.797832
16.902500 24.106328 31.559588
11.897708 23.459690 30.377088
1.787125 26.810183 23.282489
32.348205 26.810183 23.282489
12.463838 24.139241 28.082010
16.520527 26.030742 25.549400
11.594209 25.542861 23.711809
9.100953 23.269774 34.765353
4.392506 26.078536 18.607854
6.912716 22.356019 34.178453
6.512198 26.901364 19.271040
10.130476 24.252016 20.296617
3.398195 25.252150 33.128266
14.394879 22.590941 35.894743
15.006226 27.678050 35.806556
14.034378 31.276157 35.438685
14.198468 19.026593 18.980076
13.952387 29.892181 35.446768
14.151083 20.412927 19.006048
15.086888 29.128157 35.769419
14.409894 21.146160 35.872789
16.309365 29.764848 36.056046
14.321868 20.467743 34.648735
16.384646 31.149189 36.046240
15.310268 33.302298 35.772524
14.371332 19.082916 34.625976
15.246278 31.895408 35.745469
14.513355 18.382240 35.824103
15.334749 34.488066 35.798665
16.074580 26.435654 23.492908
12.893570 23.821459 30.158380
15.757440 25.990069 24.782961
13.221402 24.209466 28.851904
14.459026 25.512777 25.066371
14.515395 24.694192 28.563682
13.509871 25.499477 24.031505
15.448270 24.774105 29.609452
13.892541 25.908912 22.720146
15.090734 24.309978 30.909667
11.796593 24.648085 35.373181
1.786525 25.110166 18.108396
10.319371 24.732134 18.170877
9.368457 25.047039 35.946209
4.484324 24.317823 35.512173
6.453261 23.158400 34.743784
6.979566 26.122896 18.681713
5.067539 23.253956 34.802570
8.351717 26.091161 18.564729
4.849746 25.218889 18.128129
3.141611 24.728959 35.242616
8.614912 24.087348 35.281307
5.804781 25.119647 -0.010363
6.628932 25.164016 36.123772
7.236084 24.133411 35.370345
10.749938 24.471064 19.439428
2.803053 25.267997 34.027222
4.007611 21.980222 33.834403
11.615153 24.036013 33.574673
2.102887 25.143146 19.999249
9.366604 27.505740 19.378201
15.150420 26.390418 22.495926
13.818905 23.879845 31.154353
14.048111 25.066412 26.368760
14.922639 25.137000 27.259472
16.937892 25.917281 34.191646
12.073546 24.475840 -0.003091
12.897697 24.520208 36.131044
16.520068 25.799504 35.509436
12.067796 24.380248 19.381767
13.578711 23.230547 35.132152
15.394495 27.012201 18.513471
14.808311 23.176439 18.599932
14.164895 27.066308 35.045693
16.681836 25.328318 29.331344
[...]
POINT_DATA 708
SCALARS my_scalars float
LOOKUP_TABLE default
1.39
1.39
1.09
1.09
1.09
1.09
1.09
1.09
1.09
1.09
1.09
1.09
1.09
1.09
1.09
1.09
1.09
1.7
1.7
1.7
1.7
1.7
1.7
1.7
1.7
1.7
1.7
1.7
1.7
1.7
1.7
1.7
1.7
1.7
1.7
1.7
1.7
1.7
1.7
1.7
1.7
1.7
1.7
1.7
1.7
1.7
1.7
1.7
1.7
1.7
1.7
1.7
1.7
1.7
1.7
1.7
1.7
1.7
1.7
1.85
1.85
1.85
1.85
1.55
1.55
1.55
1.55
1.55
1.55
1.55
1.55
1.52
1.52
1.52
1.52
1.52
1.52
1.52
1.52
1.47
1.47
1.47
1.47
1.47
1.47
1.47
1.47
1.39
1.39
1.09
1.09
1.09
1.09
1.09
1.09
1.09
1.09
1.09
1.09
1.09
1.09
1.09
1.09
1.09
1.7
1.7
1.7
1.7
1.7
1.7
1.7
1.7
1.7
1.7
1.7
1.7
1.7
1.7
1.7
1.7
1.7
1.7
1.7
1.7
1.7
1.7
1.7
1.7
1.7
1.7
1.7
1.7
1.7
1.7
1.7
1.7
1.7
1.7
1.7
1.7
1.7
1.7
1.7
1.7
1.7
1.7
1.7
1.85
1.85
1.85
1.85
1.55
1.55
1.55
1.55
1.55
1.55
1.55
1.55
1.55
1.52
1.52
1.52
1.52
1.52
1.52
1.52
1.52
1.47
1.47
1.47
1.47
1.47
1.47
1.47
1.47
1.39
1.39
1.09
1.09
1.09
1.09
1.09
1.09
1.09
1.09
1.09
1.09
1.09
1.09
1.09
1.09
1.09
1.7
1.7
1.7
1.7
1.7
1.7
1.7
1.7
1.7
1.7
1.7
1.7
1.7
1.7
1.7
1.7
1.7
1.7
1.7
1.7
1.7
1.7
1.7
1.7
1.7
1.7
1.7
1.7
1.7
1.7
1.7
1.7
1.7
1.7
1.7
1.7
1.7
1.7
1.7
1.7
1.7
1.7
1.85
1.85
1.85
1.85
1.55
1.55
1.55
1.55
1.55
1.55
1.55
1.55
1.52
1.52
1.52
1.52
1.52
1.52
1.52
1.52
1.47
1.47
1.47
1.47
1.47
1.47
1.47
1.47
1.39
1.39
1.09
1.09
1.09
1.09
1.09
1.09
1.09
1.09
1.09
1.09
1.09
1.09
1.09
1.09
1.09
1.7
1.7
1.7
1.7
1.7
1.7
1.7
1.7
1.7
1.7
1.7
1.7
1.7
1.7
1.7
1.7
1.7
1.7
1.7
1.7
1.7
1.7
1.7
1.7
1.7
1.7
1.7
1.7
1.7
1.7
1.7
1.7
1.7
1.7
1.7
1.7
1.7
1.7
1.7
1.7
1.7
1.7
1.7
1.85
1.85
1.85
1.85
1.55
1.55
1.55
1.55
1.55
1.55
1.55
1.55
1.55
1.52
1.52
1.52
1.52
1.52
1.52
1.52
1.52
1.47
1.47
1.47
1.47
1.47
1.47
1.47
1.47
1.39
1.39
1.09
1.09
1.09
1.09
1.09
1.09
1.09
1.09
1.09
1.09
1.09
1.09
1.09
1.09
1.7
1.7
1.7
1.7
1.7
1.7
1.7
1.7
1.7
1.7
1.7
1.7
1.7
1.7
1.7
1.7
1.7
1.7
1.7
1.7
1.7
1.7
1.7
1.7
1.7
1.7
1.7
1.7
1.7
1.7
1.7
1.7
1.7
1.7
1.7
1.7
1.7
1.7
1.7
1.7
1.7
1.7
1.85
1.85
1.85
1.85
1.55
1.55
1.55
1.55
1.55
1.55
1.55
1.55
1.52
1.52
1.52
1.52
1.52
1.52
1.52
1.52
1.47
1.47
1.47
1.47
1.47
1.47
1.47
1.47
1.47
1.47
1.39
1.39
1.09
1.09
1.09
1.09
1.09
1.09
1.09
1.09
1.09
1.09
1.09
1.09
1.09
1.09
1.7
1.7
1.7
1.7
1.7
1.7
1.7
1.7
1.7
1.7
1.7
1.7
1.7
1.7
1.7
1.7
1.7
1.7
1.7
1.7
1.7
1.7
1.7
1.7
1.7
1.7
1.7
1.7
1.7
1.7
1.7
1.7
1.7
1.7
1.7
1.7
1.7
1.7
1.7
1.7
1.7
1.7
1.7
1.85
1.85
1.85
1.85
1.55
1.55
1.55
1.55
1.55
1.55
1.55
1.55
1.55
1.52
1.52
1.52
1.52
1.52
1.52
1.52
1.52
1.47
1.47
1.47
1.47
1.47
1.47
1.47
1.47
1.47
1.47
1.39
1.39
1.09
1.09
1.09
1.09
1.09
1.09
1.09
1.09
1.09
1.09
1.09
1.09
1.09
1.09
1.7
1.7
1.7
1.7
1.7
1.7
1.7
1.7
1.7
1.7
1.7
1.7
1.7
1.7
1.7
1.7
1.7
1.7
1.7
1.7
1.7
1.7
1.7
1.7
1.7
1.7
1.7
1.7
1.7
1.7
1.7
1.7
1.7
1.7
1.7
1.7
1.7
1.7
1.7
1.7
1.7
1.7
1.85
1.85
1.85
1.85
1.55
1.55
1.55
1.55
1.55
1.55
1.55
1.55
1.52
1.52
1.52
1.52
1.52
1.52
1.52
1.52
1.47
1.47
1.47
1.47
1.47
1.47
1.47
1.47
1.47
1.47
1.39
1.39
1.09
1.09
1.09
1.09
1.09
1.09
1.09
1.09
1.09
1.09
1.09
1.09
1.09
1.09
1.7
1.7
1.7
1.7
1.7
1.7
1.7
1.7
1.7
1.7
1.7
1.7
1.7
1.7
1.7
1.7
1.7
1.7
1.7
1.7
1.7
1.7
1.7
1.7
1.7
1.7
1.7
1.7
1.7
1.7
1.7
1.7
1.7
1.7
1.7
1.7
1.7
1.7
1.7
1.7
1.7
1.7
1.7
1.85
1.85
1.85
1.85
1.55
1.55
1.55
1.55
1.55
1.55
1.55
1.55
1.55
1.52
1.52
1.52
1.52
1.52
1.52
1.52
1.52
1.47
1.47
1.47
1.47
1.47
1.47
1.47
1.47
1.47
1.47
VECTORS vectors float
0.4375 0 0
0.4375 0 0
0.25 0 0
0.25 0 0
0.25 0 0
0.25 0 0
0.25 0 0
0.25 0 0
0.25 0 0
0.25 0 0
0.25 0 0
0.25 0 0
0.25 0 0
0.25 0 0
0.25 0 0
0.25 0 0
0.25 0 0
0.3125 0 0
0.3125 0 0
0.3125 0 0
0.3125 0 0
0.3125 0 0
0.3125 0 0
0.3125 0 0
0.3125 0 0
0.3125 0 0
0.3125 0 0
0.3125 0 0
0.3125 0 0
0.3125 0 0
0.3125 0 0
0.3125 0 0
0.3125 0 0
0.3125 0 0
0.3125 0 0
0.3125 0 0
0.3125 0 0
0.3125 0 0
0.3125 0 0
0.3125 0 0
0.3125 0 0
0.3125 0 0
0.3125 0 0
0.3125 0 0
0.3125 0 0
0.3125 0 0
0.3125 0 0
0.3125 0 0
0.3125 0 0
0.3125 0 0
0.3125 0 0
0.3125 0 0
0.3125 0 0
0.3125 0 0
0.3125 0 0
0.3125 0 0
0.3125 0 0
0.3125 0 0
0.3125 0 0
0.4375 0 0
0.4375 0 0
0.4375 0 0
0.4375 0 0
0 0 0
0 0 0
0 0 0
0 0 0
0 0 0
0 0 0
0 0 0
0 0 0
0.03125 0 0
0.03125 0 0
0.03125 0 0
0.03125 0 0
0.03125 0 0
0.03125 0 0
0.03125 0 0
0.03125 0 0
0.4375 0 0
0.4375 0 0
0.4375 0 0
0.4375 0 0
0.4375 0 0
0.4375 0 0
0.4375 0 0
0.4375 0 0
0.4375 0 0
0.4375 0 0
0.25 0 0
0.25 0 0
0.25 0 0
0.25 0 0
0.25 0 0
0.25 0 0
0.25 0 0
0.25 0 0
0.25 0 0
0.25 0 0
0.25 0 0
0.25 0 0
0.25 0 0
0.25 0 0
0.25 0 0
0.3125 0 0
0.3125 0 0
0.3125 0 0
0.3125 0 0
0.3125 0 0
0.3125 0 0
0.3125 0 0
0.3125 0 0
0.3125 0 0
0.3125 0 0
0.3125 0 0
0.3125 0 0
0.3125 0 0
0.3125 0 0
0.3125 0 0
0.3125 0 0
0.3125 0 0
0.3125 0 0
0.3125 0 0
0.3125 0 0
0.3125 0 0
0.3125 0 0
0.3125 0 0
0.3125 0 0
0.3125 0 0
0.3125 0 0
0.3125 0 0
0.3125 0 0
0.3125 0 0
0.3125 0 0
0.3125 0 0
0.3125 0 0
0.3125 0 0
0.3125 0 0
0.3125 0 0
0.3125 0 0
0.3125 0 0
0.3125 0 0
0.3125 0 0
0.3125 0 0
0.3125 0 0
0.3125 0 0
0.3125 0 0
0.4375 0 0
0.4375 0 0
0.4375 0 0
0.4375 0 0
0 0 0
0 0 0
0 0 0
0 0 0
0 0 0
0 0 0
0 0 0
0 0 0
0 0 0
0.03125 0 0
0.03125 0 0
0.03125 0 0
0.03125 0 0
0.03125 0 0
0.03125 0 0
0.03125 0 0
0.03125 0 0
0.4375 0 0
0.4375 0 0
0.4375 0 0
0.4375 0 0
0.4375 0 0
0.4375 0 0
0.4375 0 0
0.4375 0 0
0.4375 0 0
0.4375 0 0
0.25 0 0
0.25 0 0
0.25 0 0
0.25 0 0
0.25 0 0
0.25 0 0
0.25 0 0
0.25 0 0
0.25 0 0
0.25 0 0
0.25 0 0
0.25 0 0
0.25 0 0
0.25 0 0
0.25 0 0
0.3125 0 0
0.3125 0 0
0.3125 0 0
0.3125 0 0
0.3125 0 0
0.3125 0 0
0.3125 0 0
0.3125 0 0
0.3125 0 0
0.3125 0 0
0.3125 0 0
0.3125 0 0
0.3125 0 0
0.3125 0 0
0.3125 0 0
0.3125 0 0
0.3125 0 0
0.3125 0 0
0.3125 0 0
0.3125 0 0
0.3125 0 0
0.3125 0 0
0.3125 0 0
0.3125 0 0
0.3125 0 0
0.3125 0 0
0.3125 0 0
0.3125 0 0
0.3125 0 0
0.3125 0 0
0.3125 0 0
0.3125 0 0
0.3125 0 0
0.3125 0 0
0.3125 0 0
0.3125 0 0
0.3125 0 0
0.3125 0 0
0.3125 0 0
0.3125 0 0
0.3125 0 0
0.3125 0 0
0.4375 0 0
0.4375 0 0
0.4375 0 0
0.4375 0 0
0 0 0
0 0 0
0 0 0
0 0 0
0 0 0
0 0 0
0 0 0
0 0 0
0.03125 0 0
0.03125 0 0
0.03125 0 0
0.03125 0 0
0.03125 0 0
0.03125 0 0
0.03125 0 0
0.03125 0 0
0.4375 0 0
0.4375 0 0
0.4375 0 0
0.4375 0 0
0.4375 0 0
0.4375 0 0
0.4375 0 0
0.4375 0 0
0.4375 0 0
0.4375 0 0
0.25 0 0
0.25 0 0
0.25 0 0
0.25 0 0
0.25 0 0
0.25 0 0
0.25 0 0
0.25 0 0
0.25 0 0
0.25 0 0
0.25 0 0
0.25 0 0
0.25 0 0
0.25 0 0
0.25 0 0
0.3125 0 0
0.3125 0 0
0.3125 0 0
0.3125 0 0
0.3125 0 0
0.3125 0 0
0.3125 0 0
0.3125 0 0
0.3125 0 0
0.3125 0 0
0.3125 0 0
0.3125 0 0
0.3125 0 0
0.3125 0 0
0.3125 0 0
0.3125 0 0
0.3125 0 0
0.3125 0 0
0.3125 0 0
0.3125 0 0
0.3125 0 0
0.3125 0 0
0.3125 0 0
0.3125 0 0
0.3125 0 0
0.3125 0 0
0.3125 0 0
0.3125 0 0
0.3125 0 0
0.3125 0 0
0.3125 0 0
0.3125 0 0
0.3125 0 0
0.3125 0 0
0.3125 0 0
0.3125 0 0
0.3125 0 0
0.3125 0 0
0.3125 0 0
0.3125 0 0
0.3125 0 0
0.3125 0 0
0.3125 0 0
0.4375 0 0
0.4375 0 0
0.4375 0 0
0.4375 0 0
0 0 0
0 0 0
0 0 0
0 0 0
0 0 0
0 0 0
0 0 0
0 0 0
0 0 0
0.03125 0 0
0.03125 0 0
0.03125 0 0
0.03125 0 0
0.03125 0 0
0.03125 0 0
0.03125 0 0
0.03125 0 0
0.4375 0 0
0.4375 0 0
0.4375 0 0
0.4375 0 0
0.4375 0 0
0.4375 0 0
0.4375 0 0
0.4375 0 0
0.4375 0 0
0.4375 0 0
0.25 0 0
0.25 0 0
0.25 0 0
0.25 0 0
0.25 0 0
0.25 0 0
0.25 0 0
0.25 0 0
0.25 0 0
0.25 0 0
0.25 0 0
0.25 0 0
0.25 0 0
0.25 0 0
0.3125 0 0
0.3125 0 0
0.3125 0 0
0.3125 0 0
0.3125 0 0
0.3125 0 0
0.3125 0 0
0.3125 0 0
0.3125 0 0
0.3125 0 0
0.3125 0 0
0.3125 0 0
0.3125 0 0
0.3125 0 0
0.3125 0 0
0.3125 0 0
0.3125 0 0
0.3125 0 0
0.3125 0 0
0.3125 0 0
0.3125 0 0
0.3125 0 0
0.3125 0 0
0.3125 0 0
0.3125 0 0
0.3125 0 0
0.3125 0 0
0.3125 0 0
0.3125 0 0
0.3125 0 0
0.3125 0 0
0.3125 0 0
0.3125 0 0
0.3125 0 0
0.3125 0 0
0.3125 0 0
0.3125 0 0
0.3125 0 0
0.3125 0 0
0.3125 0 0
0.3125 0 0
0.3125 0 0
0.4375 0 0
0.4375 0 0
0.4375 0 0
0.4375 0 0
0 0 0
0 0 0
0 0 0
0 0 0
0 0 0
0 0 0
0 0 0
0 0 0
0.03125 0 0
0.03125 0 0
0.03125 0 0
0.03125 0 0
0.03125 0 0
0.03125 0 0
0.03125 0 0
0.03125 0 0
0.4375 0 0
0.4375 0 0
0.4375 0 0
0.4375 0 0
0.4375 0 0
0.4375 0 0
0.4375 0 0
0.4375 0 0
0.4375 0 0
0.4375 0 0
0.4375 0 0
0.4375 0 0
0.25 0 0
0.25 0 0
0.25 0 0
0.25 0 0
0.25 0 0
0.25 0 0
0.25 0 0
0.25 0 0
0.25 0 0
0.25 0 0
0.25 0 0
0.25 0 0
0.25 0 0
0.25 0 0
0.3125 0 0
0.3125 0 0
0.3125 0 0
0.3125 0 0
0.3125 0 0
0.3125 0 0
0.3125 0 0
0.3125 0 0
0.3125 0 0
0.3125 0 0
0.3125 0 0
0.3125 0 0
0.3125 0 0
0.3125 0 0
0.3125 0 0
0.3125 0 0
0.3125 0 0
0.3125 0 0
0.3125 0 0
0.3125 0 0
0.3125 0 0
0.3125 0 0
0.3125 0 0
0.3125 0 0
0.3125 0 0
0.3125 0 0
0.3125 0 0
0.3125 0 0
0.3125 0 0
0.3125 0 0
0.3125 0 0
0.3125 0 0
0.3125 0 0
0.3125 0 0
0.3125 0 0
0.3125 0 0
0.3125 0 0
0.3125 0 0
0.3125 0 0
0.3125 0 0
0.3125 0 0
0.3125 0 0
0.3125 0 0
0.4375 0 0
0.4375 0 0
0.4375 0 0
0.4375 0 0
0 0 0
0 0 0
0 0 0
0 0 0
0 0 0
0 0 0
0 0 0
0 0 0
0 0 0
0.03125 0 0
0.03125 0 0
0.03125 0 0
0.03125 0 0
0.03125 0 0
0.03125 0 0
0.03125 0 0
0.03125 0 0
0.4375 0 0
0.4375 0 0
0.4375 0 0
0.4375 0 0
0.4375 0 0
0.4375 0 0
0.4375 0 0
0.4375 0 0
0.4375 0 0
0.4375 0 0
0.4375 0 0
0.4375 0 0
0.25 0 0
0.25 0 0
0.25 0 0
0.25 0 0
0.25 0 0
0.25 0 0
0.25 0 0
0.25 0 0
0.25 0 0
0.25 0 0
0.25 0 0
0.25 0 0
0.25 0 0
0.25 0 0
0.3125 0 0
0.3125 0 0
0.3125 0 0
0.3125 0 0
0.3125 0 0
0.3125 0 0
0.3125 0 0
0.3125 0 0
0.3125 0 0
0.3125 0 0
0.3125 0 0
0.3125 0 0
0.3125 0 0
0.3125 0 0
0.3125 0 0
0.3125 0 0
0.3125 0 0
0.3125 0 0
0.3125 0 0
0.3125 0 0
0.3125 0 0
0.3125 0 0
0.3125 0 0
0.3125 0 0
0.3125 0 0
0.3125 0 0
0.3125 0 0
0.3125 0 0
0.3125 0 0
0.3125 0 0
0.3125 0 0
0.3125 0 0
0.3125 0 0
0.3125 0 0
0.3125 0 0
0.3125 0 0
0.3125 0 0
0.3125 0 0
0.3125 0 0
0.3125 0 0
0.3125 0 0
0.3125 0 0
0.4375 0 0
0.4375 0 0
0.4375 0 0
0.4375 0 0
0 0 0
0 0 0
0 0 0
0 0 0
0 0 0
0 0 0
0 0 0
0 0 0
0.03125 0 0
0.03125 0 0
0.03125 0 0
0.03125 0 0
0.03125 0 0
0.03125 0 0
0.03125 0 0
0.03125 0 0
0.4375 0 0
0.4375 0 0
0.4375 0 0
0.4375 0 0
0.4375 0 0
0.4375 0 0
0.4375 0 0
0.4375 0 0
0.4375 0 0
0.4375 0 0
0.4375 0 0
0.4375 0 0
0.25 0 0
0.25 0 0
0.25 0 0
0.25 0 0
0.25 0 0
0.25 0 0
0.25 0 0
0.25 0 0
0.25 0 0
0.25 0 0
0.25 0 0
0.25 0 0
0.25 0 0
0.25 0 0
0.3125 0 0
0.3125 0 0
0.3125 0 0
0.3125 0 0
0.3125 0 0
0.3125 0 0
0.3125 0 0
0.3125 0 0
0.3125 0 0
0.3125 0 0
0.3125 0 0
0.3125 0 0
0.3125 0 0
0.3125 0 0
0.3125 0 0
0.3125 0 0
0.3125 0 0
0.3125 0 0
0.3125 0 0
0.3125 0 0
0.3125 0 0
0.3125 0 0
0.3125 0 0
0.3125 0 0
0.3125 0 0
0.3125 0 0
0.3125 0 0
0.3125 0 0
0.3125 0 0
0.3125 0 0
0.3125 0 0
0.3125 0 0
0.3125 0 0
0.3125 0 0
0.3125 0 0
0.3125 0 0
0.3125 0 0
0.3125 0 0
0.3125 0 0
0.3125 0 0
0.3125 0 0
0.3125 0 0
0.3125 0 0
0.4375 0 0
0.4375 0 0
0.4375 0 0
0.4375 0 0
0 0 0
0 0 0
0 0 0
0 0 0
0 0 0
0 0 0
0 0 0
0 0 0
0 0 0
0.03125 0 0
0.03125 0 0
0.03125 0 0
0.03125 0 0
0.03125 0 0
0.03125 0 0
0.03125 0 0
0.03125 0 0
0.4375 0 0
0.4375 0 0
0.4375 0 0
0.4375 0 0
0.4375 0 0
0.4375 0 0
0.4375 0 0
0.4375 0 0
0.4375 0 0
0.4375 0 0
