# vtk DataFile Version 1.0
Cube
ASCII

DATASET POLYDATA
POINTS 672 float
7.783938 0.475780 2.897320
4.821582 0.678404 3.313381
7.391893 10.075293 4.818119
6.364201 6.579117 1.387331
6.592850 6.378937 5.775929
7.163243 10.275474 0.429520
6.013305 3.907570 5.693171
7.742790 12.746840 0.512279
7.970348 12.546967 4.901022
5.785745 4.107445 1.304427
3.888470 14.827538 15.340485
2.026097 1.582354 7.724618
9.997050 2.189053 7.393485
1.510481 15.058059 15.112624
8.999872 14.268372 7.155634
4.570642 1.276159 15.318349
9.713643 15.343800 15.854002
8.689187 14.614522 11.337212
4.758931 15.404637 9.457697
4.555023 0.394633 13.069092
3.981600 0.582661 7.127770
9.684883 14.431170 13.594009
5.632707 14.292953 11.532218
8.628395 13.485817 9.405411
5.966322 4.617659 2.307909
7.789772 12.036751 3.897541
6.286020 5.979746 2.353326
7.470071 10.674664 3.852123
6.508979 6.606211 3.586052
7.247117 10.048200 2.619399
6.412127 5.869597 4.772349
7.343967 10.784814 1.433100
6.092501 4.507325 4.727038
7.663593 12.147087 1.478411
3.945402 0.073151 3.422626
6.132278 31.073692 3.422626
8.659803 1.004288 2.775262
9.937596 1.623731 5.317928
2.362119 0.958948 5.693254
3.796639 15.176643 0.815723
11.301186 15.480527 0.540198
0.276996 1.781771 6.553973
1.592429 1.442346 6.741403
3.315726 15.140574 16.206082
1.959168 15.277760 16.074510
1.782751 0.768340 4.381524
0.397600 1.062779 4.202619
0.538692 0.281291 1.822648
1.944669 0.093410 1.971981
2.533718 0.314140 3.255509
10.069537 0.775762 2.937854
6.594654 0.624538 15.756051
6.219071 0.180978 5.598225
5.871179 15.557085 7.632949
6.398050 0.809348 0.554879
7.096108 15.313248 6.995399
8.070725 14.536409 7.643646
5.435064 0.231133 13.676151
7.855557 14.075910 8.929120
6.688648 14.437667 9.614268
5.673871 15.132677 8.944950
5.454554 0.766423 14.954151
8.821788 15.468755 15.251845
8.801038 14.931802 13.972239
7.648176 15.037522 13.187314
6.614653 14.321616 11.070779
7.709187 14.574975 11.803137
4.174130 0.619401 6.276735
5.694611 14.907922 0.660474
8.344809 0.033085 0.025372
8.638096 0.452605 33.230267
8.129494 2.311516 5.360245
5.869581 3.881032 3.495221
7.886513 12.773378 2.710228
6.835324 7.998728 3.632380
6.920770 8.655681 2.573069
5.437667 14.410778 3.770156
7.840496 0.040627 2.952716
10.027372 31.041168 2.952716
8.264269 2.163119 2.420157
4.768001 1.032999 3.237598
5.208730 0.509612 4.855077
8.473842 15.429525 5.096652
5.267249 1.190868 1.053928
7.438925 0.610510 1.295503
7.930582 0.685540 19.499767
4.968226 0.888164 19.915829
7.538536 10.285053 21.420567
6.510845 6.788877 17.989778
6.739494 6.588697 22.378377
7.309886 10.485233 17.031968
6.159948 4.117330 22.295619
7.889433 12.956600 17.114726
8.116991 12.756727 21.503469
5.932389 4.317205 17.906874
4.035114 15.037298 31.942933
2.172741 1.792114 24.327065
10.143694 2.398813 23.995933
1.657124 15.267819 31.715072
9.146515 14.478132 23.758082
4.717286 1.485919 31.920796
9.860286 15.553560 32.456450
8.835830 14.824282 27.939659
4.905575 15.614397 26.060144
4.701666 0.604393 29.671539
4.128244 0.792421 23.730218
9.831527 14.640930 30.196457
5.779350 14.502713 28.134665
8.775039 13.695577 26.007858
6.112966 4.827419 18.910357
7.936416 12.246511 20.499988
6.432664 6.189506 18.955774
7.616715 10.884424 20.454570
6.655622 6.815971 20.188499
7.393760 10.257960 19.221846
6.558770 6.079357 21.374797
7.490611 10.994574 18.035548
6.239145 4.717085 21.329485
7.810236 12.356847 18.080859
4.092046 0.282911 20.025073
6.278922 31.283452 20.025073
8.806447 1.214048 19.377710
10.084239 1.833491 21.920376
2.508763 1.168708 22.295701
3.943283 15.386403 17.418170
11.447830 15.690287 17.142645
0.423640 1.991531 23.156420
1.739073 1.652106 23.343851
3.462370 15.350334 32.808530
2.105812 15.487520 32.676957
1.929395 0.978100 20.983972
0.544244 1.272539 20.805067
0.685336 0.491051 18.425095
2.091313 0.303170 18.574428
2.680362 0.523900 19.857956
10.216181 0.985522 19.540302
6.741297 0.834298 32.358499
6.365715 0.390738 22.200672
6.017822 15.766845 24.235396
6.544694 1.019108 17.157326
7.242752 15.523008 23.597847
8.217368 14.746169 24.246094
5.581708 0.440893 30.278599
8.002200 14.285670 25.531567
6.835292 14.647426 26.216716
5.820515 15.342437 25.547398
5.601198 0.976183 31.556599
8.968432 15.678515 31.854292
8.947682 15.141562 30.574686
7.794819 15.247282 29.789761
6.761296 14.531376 27.673226
7.855831 14.784735 28.405585
4.320773 0.829161 22.879183
5.841254 15.117682 17.262921
8.491452 0.242845 16.627819
8.276138 2.521276 21.962692
6.016224 4.090792 20.097669
8.033157 12.983138 19.312675
6.981967 8.208488 20.234828
7.067413 8.865441 19.175517
5.584310 14.620538 20.372603
7.987140 0.250387 19.555163
10.174016 31.250928 19.555163
8.410913 2.372879 19.022605
4.914645 1.242759 19.840045
5.355374 0.719372 21.457524
8.620486 15.639285 21.699100
5.413893 1.400628 17.656375
7.585569 0.820270 17.897950
8.877376 15.976051 2.897320
5.915020 16.178675 3.313381
8.485331 25.575564 4.818119
7.457639 22.079387 1.387331
7.686288 21.879207 5.775929
8.256680 25.775744 0.429520
7.106743 19.407841 5.693171
8.836227 28.247110 0.512279
9.063786 28.047238 4.901022
6.879183 19.607716 1.304427
4.981908 30.327808 15.340485
3.119535 17.082625 7.724618
11.090488 17.689323 7.393485
2.603919 30.558329 15.112624
10.093309 29.768643 7.155634
5.664080 16.776430 15.318349
10.807080 30.844071 15.854002
9.782625 30.114793 11.337212
5.852369 30.904908 9.457697
5.648461 15.894904 13.069092
5.075038 16.082931 7.127770
10.778321 29.931441 13.594009
6.726145 29.793224 11.532218
9.721833 28.986087 9.405411
7.059760 20.117930 2.307909
8.883210 27.537022 3.897541
7.379458 21.480016 2.353326
8.563509 26.174934 3.852123
7.602417 22.106481 3.586052
8.340554 25.548471 2.619399
7.505564 21.369868 4.772349
8.437405 26.285085 1.433100
7.185939 20.007596 4.727038
8.757030 27.647357 1.478411
5.038840 15.573421 3.422626
9.753241 16.504558 2.775262
11.031034 17.124002 5.317928
3.455557 16.459218 5.693254
4.890077 30.676914 0.815723
10.207748 -0.019744 0.540198
12.394624 30.980797 0.540198
1.370434 17.282042 6.553973
2.685867 16.942616 6.741403
4.409164 30.640845 16.206082
3.052606 30.778031 16.074510
2.876189 16.268611 4.381524
1.491038 16.563050 4.202619
1.632130 15.781561 1.822648
3.038107 15.593681 1.971981
3.627156 15.814410 3.255509
11.162975 16.276032 2.937854
7.688092 16.124808 15.756051
7.312509 15.681249 5.598225
6.964617 31.057355 7.632949
7.491488 16.309618 0.554879
8.189546 30.813519 6.995399
9.164162 30.036680 7.643646
6.528502 15.731403 13.676151
8.948995 29.576181 8.929120
7.782086 29.937937 9.614268
6.767309 30.632948 8.944950
6.547992 16.266694 14.954151
9.915226 30.969025 15.251845
9.894476 30.432073 13.972239
8.741614 30.537793 13.187314
7.708091 29.821887 11.070779
8.802625 30.075245 11.803137
5.267568 16.119671 6.276735
6.788049 30.408192 0.660474
9.438247 15.533355 0.025372
9.731534 15.952875 33.230267
9.222932 17.811786 5.360245
6.963018 19.381302 3.495221
8.979951 28.273649 2.710228
7.928762 23.498999 3.632380
8.014207 24.155952 2.573069
6.531105 29.911048 3.770156
8.933934 15.540898 2.952716
9.357707 17.663390 2.420157
5.861439 16.533270 3.237598
6.302168 16.009883 4.855077
9.567280 30.929796 5.096652
6.360687 16.691139 1.053928
8.532363 16.110780 1.295503
9.024020 16.185811 19.499767
6.061664 16.388435 19.915829
8.631974 25.785323 21.420567
7.604283 22.289147 17.989778
7.832932 22.088967 22.378377
8.403324 25.985504 17.031968
7.253386 19.617601 22.295619
8.982871 28.456870 17.114726
9.210429 28.256998 21.503469
7.025827 19.817476 17.906874
5.128552 30.537568 31.942933
3.266179 17.292385 24.327065
11.237132 17.899083 23.995933
2.750562 30.768089 31.715072
10.239953 29.978403 23.758082
5.810724 16.986190 31.920796
10.953724 31.053831 32.456450
9.929268 30.324553 27.939659
5.999013 31.114668 26.060144
5.795104 16.104664 29.671539
5.221682 16.292691 23.730218
10.924964 30.141201 30.196457
6.872788 30.002984 28.134665
9.868477 29.195847 26.007858
7.206404 20.327689 18.910357
9.029854 27.746782 20.499988
7.526102 21.689776 18.955774
8.710153 26.384694 20.454570
7.749060 22.316241 20.188499
8.487198 25.758231 19.221846
7.652208 21.579628 21.374797
8.584048 26.494845 18.035548
7.332583 20.217356 21.329485
8.903674 27.857117 18.080859
5.185484 15.783181 20.025073
9.899885 16.714318 19.377710
11.177677 17.333762 21.920376
3.602200 16.668978 22.295701
5.036721 30.886674 17.418170
10.354392 0.190016 17.142645
12.541267 31.190557 17.142645
1.517078 17.491802 23.156420
2.832510 17.152376 23.343851
4.555808 30.850605 32.808530
3.199250 30.987791 32.676957
3.022833 16.478371 20.983972
1.637682 16.772810 20.805067
1.778773 15.991321 18.425095
3.184751 15.803441 18.574428
3.773800 16.024170 19.857956
11.309619 16.485792 19.540302
7.834735 16.334568 32.358499
7.459153 15.891009 22.200672
7.111260 31.267115 24.235396
7.638132 16.519378 17.157326
8.336190 31.023279 23.597847
9.310806 30.246440 24.246094
6.675146 15.941163 30.278599
9.095638 29.785941 25.531567
7.928730 30.147697 26.216716
6.913952 30.842707 25.547398
6.694636 16.476454 31.556599
10.061870 31.178785 31.854292
10.041120 30.641833 30.574686
8.888257 30.747553 29.789761
7.854734 30.031647 27.673226
8.949269 30.285005 28.405585
5.414211 16.329431 22.879183
6.934692 30.617952 17.262921
9.584890 15.743115 16.627819
9.369576 18.021546 21.962692
7.109662 19.591062 20.097669
9.126594 28.483409 19.312675
8.075405 23.708758 20.234828
8.160851 24.365712 19.175517
6.677748 30.120808 20.372603
9.080578 15.750658 19.555163
9.504350 17.873150 19.022605
6.008082 16.743029 19.840045
6.448812 16.219643 21.457524
9.713924 31.139556 21.699100
6.507331 16.900899 17.656375
8.679007 16.320540 17.897950
18.055388 0.475780 2.897320
15.093032 0.678404 3.313381
17.663343 10.075293 4.818119
16.635651 6.579117 1.387331
16.864300 6.378937 5.775929
17.434693 10.275474 0.429520
16.284755 3.907570 5.693171
18.014240 12.746840 0.512279
18.241798 12.546967 4.901022
16.057195 4.107445 1.304427
14.159920 14.827538 15.340485
12.297547 1.582354 7.724618
20.268500 2.189053 7.393485
11.781931 15.058059 15.112624
19.271322 14.268372 7.155634
14.842092 1.276159 15.318349
19.985093 15.343800 15.854002
18.960637 14.614522 11.337212
15.030381 15.404637 9.457697
14.826473 0.394633 13.069092
14.253050 0.582661 7.127770
19.956333 14.431170 13.594009
15.904157 14.292953 11.532218
18.899845 13.485817 9.405411
16.237772 4.617659 2.307909
18.061222 12.036751 3.897541
16.557470 5.979746 2.353326
17.741521 10.674664 3.852123
16.780429 6.606211 3.586052
17.518567 10.048200 2.619399
16.683577 5.869597 4.772349
17.615417 10.784814 1.433100
16.363951 4.507325 4.727038
17.935043 12.147087 1.478411
14.216852 0.073151 3.422626
16.403728 31.073692 3.422626
18.931253 1.004288 2.775262
20.209046 1.623731 5.317928
12.633569 0.958948 5.693254
14.068089 15.176643 0.815723
21.572636 15.480527 0.540198
10.548446 1.781771 6.553973
11.863879 1.442346 6.741403
13.587176 15.140574 16.206082
12.230618 15.277760 16.074510
12.054201 0.768340 4.381524
10.669050 1.062779 4.202619
10.810142 0.281291 1.822648
12.216119 0.093410 1.971981
12.805168 0.314140 3.255509
20.340987 0.775762 2.937854
16.866104 0.624538 15.756051
16.490521 0.180978 5.598225
16.142629 15.557085 7.632949
16.669500 0.809348 0.554879
17.367558 15.313248 6.995399
18.342175 14.536409 7.643646
15.706514 0.231133 13.676151
18.127007 14.075910 8.929120
16.960098 14.437667 9.614268
15.945321 15.132677 8.944950
15.726004 0.766423 14.954151
19.093238 15.468755 15.251845
19.072488 14.931802 13.972239
17.919626 15.037522 13.187314
16.886103 14.321616 11.070779
17.980637 14.574975 11.803137
14.445580 0.619401 6.276735
15.966061 14.907922 0.660474
18.616259 0.033085 0.025372
18.909546 0.452605 33.230267
18.400944 2.311516 5.360245
16.141031 3.881032 3.495221
18.157963 12.773378 2.710228
17.106774 7.998728 3.632380
17.192220 8.655681 2.573069
15.709117 14.410778 3.770156
18.111946 0.040627 2.952716
20.298822 31.041168 2.952716
18.535719 2.163119 2.420157
15.039451 1.032999 3.237598
15.480180 0.509612 4.855077
18.745292 15.429525 5.096652
15.538699 1.190868 1.053928
17.710375 0.610510 1.295503
18.202032 0.685540 19.499767
15.239676 0.888164 19.915829
17.809986 10.285053 21.420567
16.782295 6.788877 17.989778
17.010944 6.588697 22.378377
17.581336 10.485233 17.031968
16.431398 4.117330 22.295619
18.160883 12.956600 17.114726
18.388441 12.756727 21.503469
16.203839 4.317205 17.906874
14.306564 15.037298 31.942933
12.444191 1.792114 24.327065
20.415144 2.398813 23.995933
11.928574 15.267819 31.715072
19.417965 14.478132 23.758082
14.988736 1.485919 31.920796
20.131736 15.553560 32.456450
19.107280 14.824282 27.939659
15.177025 15.614397 26.060144
14.973116 0.604393 29.671539
14.399694 0.792421 23.730218
20.102977 14.640930 30.196457
16.050800 14.502713 28.134665
19.046489 13.695577 26.007858
16.384416 4.827419 18.910357
18.207866 12.246511 20.499988
16.704114 6.189506 18.955774
17.888165 10.884424 20.454570
16.927072 6.815971 20.188499
17.665210 10.257960 19.221846
16.830220 6.079357 21.374797
17.762061 10.994574 18.035548
16.510595 4.717085 21.329485
18.081686 12.356847 18.080859
14.363496 0.282911 20.025073
16.550372 31.283452 20.025073
19.077897 1.214048 19.377710
20.355689 1.833491 21.920376
12.780213 1.168708 22.295701
14.214733 15.386403 17.418170
21.719280 15.690287 17.142645
10.695090 1.991531 23.156420
12.010523 1.652106 23.343851
13.733820 15.350334 32.808530
12.377262 15.487520 32.676957
12.200845 0.978100 20.983972
10.815694 1.272539 20.805067
10.956786 0.491051 18.425095
12.362763 0.303170 18.574428
12.951812 0.523900 19.857956
20.487631 0.985522 19.540302
17.012747 0.834298 32.358499
16.637165 0.390738 22.200672
16.289272 15.766845 24.235396
16.816144 1.019108 17.157326
17.514202 15.523008 23.597847
18.488818 14.746169 24.246094
15.853158 0.440893 30.278599
18.273650 14.285670 25.531567
17.106742 14.647426 26.216716
16.091965 15.342437 25.547398
15.872648 0.976183 31.556599
19.239882 15.678515 31.854292
19.219132 15.141562 30.574686
18.066269 15.247282 29.789761
17.032746 14.531376 27.673226
18.127281 14.784735 28.405585
14.592223 0.829161 22.879183
16.112704 15.117682 17.262921
18.762902 0.242845 16.627819
18.547588 2.521276 21.962692
16.287674 4.090792 20.097669
18.304607 12.983138 19.312675
17.253417 8.208488 20.234828
17.338863 8.865441 19.175517
15.855760 14.620538 20.372603
18.258590 0.250387 19.555163
20.445466 31.250928 19.555163
18.682363 2.372879 19.022605
15.186095 1.242759 19.840045
15.626824 0.719372 21.457524
18.891936 15.639285 21.699100
15.685343 1.400628 17.656375
17.857019 0.820270 17.897950
19.148826 15.976051 2.897320
16.186470 16.178675 3.313381
18.756781 25.575564 4.818119
17.729089 22.079387 1.387331
17.957738 21.879207 5.775929
18.528130 25.775744 0.429520
17.378193 19.407841 5.693171
19.107677 28.247110 0.512279
19.335236 28.047238 4.901022
17.150633 19.607716 1.304427
15.253358 30.327808 15.340485
13.390985 17.082625 7.724618
21.361938 17.689323 7.393485
12.875369 30.558329 15.112624
20.364759 29.768643 7.155634
15.935530 16.776430 15.318349
21.078530 30.844071 15.854002
20.054075 30.114793 11.337212
16.123819 30.904908 9.457697
15.919911 15.894904 13.069092
15.346488 16.082931 7.127770
21.049771 29.931441 13.594009
16.997595 29.793224 11.532218
19.993283 28.986087 9.405411
17.331210 20.117930 2.307909
19.154660 27.537022 3.897541
17.650908 21.480016 2.353326
18.834959 26.174934 3.852123
17.873867 22.106481 3.586052
18.612004 25.548471 2.619399
17.777014 21.369868 4.772349
18.708855 26.285085 1.433100
17.457389 20.007596 4.727038
19.028480 27.647357 1.478411
15.310290 15.573421 3.422626
20.024691 16.504558 2.775262
21.302484 17.124002 5.317928
13.727007 16.459218 5.693254
15.161527 30.676914 0.815723
20.479198 -0.019744 0.540198
22.666074 30.980797 0.540198
11.641884 17.282042 6.553973
12.957317 16.942616 6.741403
14.680614 30.640845 16.206082
13.324056 30.778031 16.074510
13.147639 16.268611 4.381524
11.762488 16.563050 4.202619
11.903580 15.781561 1.822648
13.309557 15.593681 1.971981
13.898606 15.814410 3.255509
21.434425 16.276032 2.937854
17.959542 16.124808 15.756051
17.583959 15.681249 5.598225
17.236067 31.057355 7.632949
17.762938 16.309618 0.554879
18.460996 30.813519 6.995399
19.435612 30.036680 7.643646
16.799952 15.731403 13.676151
19.220445 29.576181 8.929120
18.053536 29.937937 9.614268
17.038759 30.632948 8.944950
16.819442 16.266694 14.954151
20.186676 30.969025 15.251845
20.165926 30.432073 13.972239
19.013064 30.537793 13.187314
17.979541 29.821887 11.070779
19.074075 30.075245 11.803137
15.539018 16.119671 6.276735
17.059499 30.408192 0.660474
19.709697 15.533355 0.025372
20.002984 15.952875 33.230267
19.494382 17.811786 5.360245
17.234468 19.381302 3.495221
19.251401 28.273649 2.710228
18.200212 23.498999 3.632380
18.285657 24.155952 2.573069
16.802555 29.911048 3.770156
19.205384 15.540898 2.952716
19.629157 17.663390 2.420157
16.132889 16.533270 3.237598
16.573618 16.009883 4.855077
19.838730 30.929796 5.096652
16.632137 16.691139 1.053928
18.803813 16.110780 1.295503
19.295470 16.185811 19.499767
16.333114 16.388435 19.915829
18.903424 25.785323 21.420567
17.875733 22.289147 17.989778
18.104382 22.088967 22.378377
18.674774 25.985504 17.031968
17.524836 19.617601 22.295619
19.254321 28.456870 17.114726
19.481879 28.256998 21.503469
17.297277 19.817476 17.906874
15.400002 30.537568 31.942933
13.537629 17.292385 24.327065
21.508582 17.899083 23.995933
13.022012 30.768089 31.715072
20.511403 29.978403 23.758082
16.082174 16.986190 31.920796
21.225174 31.053831 32.456450
20.200718 30.324553 27.939659
16.270463 31.114668 26.060144
16.066554 16.104664 29.671539
15.493132 16.292691 23.730218
21.196414 30.141201 30.196457
17.144238 30.002984 28.134665
20.139927 29.195847 26.007858
17.477854 20.327689 18.910357
19.301304 27.746782 20.499988
17.797552 21.689776 18.955774
18.981603 26.384694 20.454570
18.020510 22.316241 20.188499
18.758648 25.758231 19.221846
17.923658 21.579628 21.374797
18.855498 26.494845 18.035548
17.604033 20.217356 21.329485
19.175124 27.857117 18.080859
15.456934 15.783181 20.025073
20.171335 16.714318 19.377710
21.449127 17.333762 21.920376
13.873650 16.668978 22.295701
15.308171 30.886674 17.418170
20.625842 0.190016 17.142645
22.812717 31.190557 17.142645
11.788528 17.491802 23.156420
13.103960 17.152376 23.343851
14.827258 30.850605 32.808530
13.470700 30.987791 32.676957
13.294283 16.478371 20.983972
11.909132 16.772810 20.805067
12.050223 15.991321 18.425095
13.456201 15.803441 18.574428
14.045250 16.024170 19.857956
21.581069 16.485792 19.540302
18.106185 16.334568 32.358499
17.730603 15.891009 22.200672
17.382710 31.267115 24.235396
17.909582 16.519378 17.157326
18.607640 31.023279 23.597847
19.582256 30.246440 24.246094
16.946596 15.941163 30.278599
19.367088 29.785941 25.531567
18.200180 30.147697 26.216716
17.185402 30.842707 25.547398
16.966086 16.476454 31.556599
20.333320 31.178785 31.854292
20.312570 30.641833 30.574686
19.159707 30.747553 29.789761
18.126184 30.031647 27.673226
19.220719 30.285005 28.405585
15.685661 16.329431 22.879183
17.206142 30.617952 17.262921
19.856340 15.743115 16.627819
19.641026 18.021546 21.962692
17.381112 19.591062 20.097669
19.398044 28.483409 19.312675
18.346855 23.708758 20.234828
18.432301 24.365712 19.175517
16.949198 30.120808 20.372603
19.352028 15.750658 19.555163
19.775800 17.873150 19.022605
16.279532 16.743029 19.840045
16.720262 16.219643 21.457524
19.985374 31.139556 21.699100
16.778781 16.900899 17.656375
18.950457 16.320540 17.897950
POINT_DATA 672
SCALARS my_scalars float
LOOKUP_TABLE default
1.39
1.39
1.09
1.09
1.09
1.09
1.09
1.09
1.09
1.09
1.09
1.09
1.09
1.09
1.09
1.09
1.09
1.09
1.09
1.09
1.09
1.09
1.09
1.09
1.7
1.7
1.7
1.7
1.7
1.7
1.7
1.7
1.7
1.7
1.7
1.7
1.7
1.7
1.7
1.7
1.7
1.7
1.7
1.7
1.7
1.7
1.7
1.7
1.7
1.7
1.7
1.7
1.7
1.7
1.7
1.7
1.7
1.7
1.7
1.7
1.7
1.7
1.7
1.7
1.7
1.7
1.7
1.85
1.85
1.85
1.85
1.85
1.55
1.55
1.55
1.55
1.52
1.52
1.52
1.52
1.52
1.52
1.52
1.52
1.52
1.39
1.39
1.09
1.09
1.09
1.09
1.09
1.09
1.09
1.09
1.09
1.09
1.09
1.09
1.09
1.09
1.09
1.09
1.09
1.09
1.09
1.09
1.09
1.09
1.7
1.7
1.7
1.7
1.7
1.7
1.7
1.7
1.7
1.7
1.7
1.7
1.7
1.7
1.7
1.7
1.7
1.7
1.7
1.7
1.7
1.7
1.7
1.7
1.7
1.7
1.7
1.7
1.7
1.7
1.7
1.7
1.7
1.7
1.7
1.7
1.7
1.7
1.7
1.7
1.7
1.7
1.7
1.85
1.85
1.85
1.85
1.55
1.55
1.55
1.55
1.52
1.52
1.52
1.52
1.52
1.52
1.52
1.52
1.52
1.39
1.39
1.09
1.09
1.09
1.09
1.09
1.09
1.09
1.09
1.09
1.09
1.09
1.09
1.09
1.09
1.09
1.09
1.09
1.09
1.09
1.09
1.09
1.09
1.7
1.7
1.7
1.7
1.7
1.7
1.7
1.7
1.7
1.7
1.7
1.7
1.7
1.7
1.7
1.7
1.7
1.7
1.7
1.7
1.7
1.7
1.7
1.7
1.7
1.7
1.7
1.7
1.7
1.7
1.7
1.7
1.7
1.7
1.7
1.7
1.7
1.7
1.7
1.7
1.7
1.7
1.7
1.85
1.85
1.85
1.85
1.85
1.55
1.55
1.55
1.55
1.52
1.52
1.52
1.52
1.52
1.52
1.52
1.52
1.39
1.39
1.09
1.09
1.09
1.09
1.09
1.09
1.09
1.09
1.09
1.09
1.09
1.09
1.09
1.09
1.09
1.09
1.09
1.09
1.09
1.09
1.09
1.09
1.7
1.7
1.7
1.7
1.7
1.7
1.7
1.7
1.7
1.7
1.7
1.7
1.7
1.7
1.7
1.7
1.7
1.7
1.7
1.7
1.7
1.7
1.7
1.7
1.7
1.7
1.7
1.7
1.7
1.7
1.7
1.7
1.7
1.7
1.7
1.7
1.7
1.7
1.7
1.7
1.7
1.7
1.7
1.85
1.85
1.85
1.85
1.55
1.55
1.55
1.55
1.52
1.52
1.52
1.52
1.52
1.52
1.52
1.52
1.39
1.39
1.09
1.09
1.09
1.09
1.09
1.09
1.09
1.09
1.09
1.09
1.09
1.09
1.09
1.09
1.09
1.09
1.09
1.09
1.09
1.09
1.09
1.09
1.7
1.7
1.7
1.7
1.7
1.7
1.7
1.7
1.7
1.7
1.7
1.7
1.7
1.7
1.7
1.7
1.7
1.7
1.7
1.7
1.7
1.7
1.7
1.7
1.7
1.7
1.7
1.7
1.7
1.7
1.7
1.7
1.7
1.7
1.7
1.7
1.7
1.7
1.7
1.7
1.7
1.7
1.7
1.85
1.85
1.85
1.85
1.85
1.55
1.55
1.55
1.55
1.52
1.52
1.52
1.52
1.52
1.52
1.52
1.52
1.52
1.39
1.39
1.09
1.09
1.09
1.09
1.09
1.09
1.09
1.09
1.09
1.09
1.09
1.09
1.09
1.09
1.09
1.09
1.09
1.09
1.09
1.09
1.09
1.09
1.7
1.7
1.7
1.7
1.7
1.7
1.7
1.7
1.7
1.7
1.7
1.7
1.7
1.7
1.7
1.7
1.7
1.7
1.7
1.7
1.7
1.7
1.7
1.7
1.7
1.7
1.7
1.7
1.7
1.7
1.7
1.7
1.7
1.7
1.7
1.7
1.7
1.7
1.7
1.7
1.7
1.7
1.7
1.85
1.85
1.85
1.85
1.55
1.55
1.55
1.55
1.52
1.52
1.52
1.52
1.52
1.52
1.52
1.52
1.52
1.39
1.39
1.09
1.09
1.09
1.09
1.09
1.09
1.09
1.09
1.09
1.09
1.09
1.09
1.09
1.09
1.09
1.09
1.09
1.09
1.09
1.09
1.09
1.09
1.7
1.7
1.7
1.7
1.7
1.7
1.7
1.7
1.7
1.7
1.7
1.7
1.7
1.7
1.7
1.7
1.7
1.7
1.7
1.7
1.7
1.7
1.7
1.7
1.7
1.7
1.7
1.7
1.7
1.7
1.7
1.7
1.7
1.7
1.7
1.7
1.7
1.7
1.7
1.7
1.7
1.7
1.7
1.85
1.85
1.85
1.85
1.85
1.55
1.55
1.55
1.55
1.52
1.52
1.52
1.52
1.52
1.52
1.52
1.52
1.39
1.39
1.09
1.09
1.09
1.09
1.09
1.09
1.09
1.09
1.09
1.09
1.09
1.09
1.09
1.09
1.09
1.09
1.09
1.09
1.09
1.09
1.09
1.09
1.7
1.7
1.7
1.7
1.7
1.7
1.7
1.7
1.7
1.7
1.7
1.7
1.7
1.7
1.7
1.7
1.7
1.7
1.7
1.7
1.7
1.7
1.7
1.7
1.7
1.7
1.7
1.7
1.7
1.7
1.7
1.7
1.7
1.7
1.7
1.7
1.7
1.7
1.7
1.7
1.7
1.7
1.7
1.85
1.85
1.85
1.85
1.55
1.55
1.55
1.55
1.52
1.52
1.52
1.52
1.52
1.52
1.52
1.52
VECTORS vectors float
0.4375 0 0
0.4375 0 0
0.25 0 0
0.25 0 0
0.25 0 0
0.25 0 0
0.25 0 0
0.25 0 0
0.25 0 0
0.25 0 0
0.25 0 0
0.25 0 0
0.25 0 0
0.25 0 0
0.25 0 0
0.25 0 0
0.25 0 0
0.25 0 0
0.25 0 0
0.25 0 0
0.25 0 0
0.25 0 0
0.25 0 0
0.25 0 0
0.3125 0 0
0.3125 0 0
0.3125 0 0
0.3125 0 0
0.3125 0 0
0.3125 0 0
0.3125 0 0
0.3125 0 0
0.3125 0 0
0.3125 0 0
0.3125 0 0
0.3125 0 0
0.3125 0 0
0.3125 0 0
0.3125 0 0
0.3125 0 0
0.3125 0 0
0.3125 0 0
0.3125 0 0
0.3125 0 0
0.3125 0 0
0.3125 0 0
0.3125 0 0
0.3125 0 0
0.3125 0 0
0.3125 0 0
0.3125 0 0
0.3125 0 0
0.3125 0 0
0.3125 0 0
0.3125 0 0
0.3125 0 0
0.3125 0 0
0.3125 0 0
0.3125 0 0
0.3125 0 0
0.3125 0 0
0.3125 0 0
0.3125 0 0
0.3125 0 0
0.3125 0 0
0.3125 0 0
0.3125 0 0
0.4375 0 0
0.4375 0 0
0.4375 0 0
0.4375 0 0
0.4375 0 0
0 0 0
0 0 0
0 0 0
0 0 0
0.03125 0 0
0.03125 0 0
0.03125 0 0
0.03125 0 0
0.03125 0 0
0.03125 0 0
0.03125 0 0
0.03125 0 0
0.03125 0 0
0.4375 0 0
0.4375 0 0
0.25 0 0
0.25 0 0
0.25 0 0
0.25 0 0
0.25 0 0
0.25 0 0
0.25 0 0
0.25 0 0
0.25 0 0
0.25 0 0
0.25 0 0
0.25 0 0
0.25 0 0
0.25 0 0
0.25 0 0
0.25 0 0
0.25 0 0
0.25 0 0
0.25 0 0
0.25 0 0
0.25 0 0
0.25 0 0
0.3125 0 0
0.3125 0 0
0.3125 0 0
0.3125 0 0
0.3125 0 0
0.3125 0 0
0.3125 0 0
0.3125 0 0
0.3125 0 0
0.3125 0 0
0.3125 0 0
0.3125 0 0
0.3125 0 0
0.3125 0 0
0.3125 0 0
0.3125 0 0
0.3125 0 0
0.3125 0 0
0.3125 0 0
0.3125 0 0
0.3125 0 0
0.3125 0 0
0.3125 0 0
0.3125 0 0
0.3125 0 0
0.3125 0 0
0.3125 0 0
0.3125 0 0
0.3125 0 0
0.3125 0 0
0.3125 0 0
0.3125 0 0
0.3125 0 0
0.3125 0 0
0.3125 0 0
0.3125 0 0
0.3125 0 0
0.3125 0 0
0.3125 0 0
0.3125 0 0
0.3125 0 0
0.3125 0 0
0.3125 0 0
0.4375 0 0
0.4375 0 0
0.4375 0 0
0.4375 0 0
0 0 0
0 0 0
0 0 0
0 0 0
0.03125 0 0
0.03125 0 0
0.03125 0 0
0.03125 0 0
0.03125 0 0
0.03125 0 0
0.03125 0 0
0.03125 0 0
0.03125 0 0
0.4375 0 0
0.4375 0 0
0.25 0 0
0.25 0 0
0.25 0 0
0.25 0 0
0.25 0 0
0.25 0 0
0.25 0 0
0.25 0 0
0.25 0 0
0.25 0 0
0.25 0 0
0.25 0 0
0.25 0 0
0.25 0 0
0.25 0 0
0.25 0 0
0.25 0 0
0.25 0 0
0.25 0 0
0.25 0 0
0.25 0 0
0.25 0 0
0.3125 0 0
0.3125 0 0
0.3125 0 0
0.3125 0 0
0.3125 0 0
0.3125 0 0
0.3125 0 0
0.3125 0 0
0.3125 0 0
0.3125 0 0
0.3125 0 0
0.3125 0 0
0.3125 0 0
0.3125 0 0
0.3125 0 0
0.3125 0 0
0.3125 0 0
0.3125 0 0
0.3125 0 0
0.3125 0 0
0.3125 0 0
0.3125 0 0
0.3125 0 0
0.3125 0 0
0.3125 0 0
0.3125 0 0
0.3125 0 0
0.3125 0 0
0.3125 0 0
0.3125 0 0
0.3125 0 0
0.3125 0 0
0.3125 0 0
0.3125 0 0
0.3125 0 0
0.3125 0 0
0.3125 0 0
0.3125 0 0
0.3125 0 0
0.3125 0 0
0.3125 0 0
0.3125 0 0
0.3125 0 0
0.4375 0 0
0.4375 0 0
0.4375 0 0
0.4375 0 0
0.4375 0 0
0 0 0
0 0 0
0 0 0
0 0 0
0.03125 0 0
0.03125 0 0
0.03125 0 0
0.03125 0 0
0.03125 0 0
0.03125 0 0
0.03125 0 0
0.03125 0 0
0.4375 0 0
0.4375 0 0
0.25 0 0
0.25 0 0
0.25 0 0
0.25 0 0
0.25 0 0
0.25 0 0
0.25 0 0
0.25 0 0
0.25 0 0
0.25 0 0
0.25 0 0
0.25 0 0
0.25 0 0
0.25 0 0
0.25 0 0
0.25 0 0
0.25 0 0
0.25 0 0
0.25 0 0
0.25 0 0
0.25 0 0
0.25 0 0
0.3125 0 0
0.3125 0 0
0.3125 0 0
0.3125 0 0
0.3125 0 0
0.3125 0 0
0.3125 0 0
0.3125 0 0
0.3125 0 0
0.3125 0 0
0.3125 0 0
0.3125 0 0
0.3125 0 0
0.3125 0 0
0.3125 0 0
0.3125 0 0
0.3125 0 0
0.3125 0 0
0.3125 0 0
0.3125 0 0
0.3125 0 0
0.3125 0 0
0.3125 0 0
0.3125 0 0
0.3125 0 0
0.3125 0 0
0.3125 0 0
0.3125 0 0
0.3125 0 0
0.3125 0 0
0.3125 0 0
0.3125 0 0
0.3125 0 0
0.3125 0 0
0.3125 0 0
0.3125 0 0
0.3125 0 0
0.3125 0 0
0.3125 0 0
0.3125 0 0
0.3125 0 0
0.3125 0 0
0.3125 0 0
0.4375 0 0
0.4375 0 0
0.4375 0 0
0.4375 0 0
0 0 0
0 0 0
0 0 0
0 0 0
0.03125 0 0
0.03125 0 0
0.03125 0 0
0.03125 0 0
0.03125 0 0
0.03125 0 0
0.03125 0 0
0.03125 0 0
0.4375 0 0
0.4375 0 0
0.25 0 0
0.25 0 0
0.25 0 0
0.25 0 0
0.25 0 0
0.25 0 0
0.25 0 0
0.25 0 0
0.25 0 0
0.25 0 0
0.25 0 0
0.25 0 0
0.25 0 0
0.25 0 0
0.25 0 0
0.25 0 0
0.25 0 0
0.25 0 0
0.25 0 0
0.25 0 0
0.25 0 0
0.25 0 0
0.3125 0 0
0.3125 0 0
0.3125 0 0
0.3125 0 0
0.3125 0 0
0.3125 0 0
0.3125 0 0
0.3125 0 0
0.3125 0 0
0.3125 0 0
0.3125 0 0
0.3125 0 0
0.3125 0 0
0.3125 0 0
0.3125 0 0
0.3125 0 0
0.3125 0 0
0.3125 0 0
0.3125 0 0
0.3125 0 0
0.3125 0 0
0.3125 0 0
0.3125 0 0
0.3125 0 0
0.3125 0 0
0.3125 0 0
0.3125 0 0
0.3125 0 0
0.3125 0 0
0.3125 0 0
0.3125 0 0
0.3125 0 0
0.3125 0 0
0.3125 0 0
0.3125 0 0
0.3125 0 0
0.3125 0 0
0.3125 0 0
0.3125 0 0
0.3125 0 0
0.3125 0 0
0.3125 0 0
0.3125 0 0
0.4375 0 0
0.4375 0 0
0.4375 0 0
0.4375 0 0
0.4375 0 0
0 0 0
0 0 0
0 0 0
0 0 0
0.03125 0 0
0.03125 0 0
0.03125 0 0
0.03125 0 0
0.03125 0 0
0.03125 0 0
0.03125 0 0
0.03125 0 0
0.03125 0 0
0.4375 0 0
0.4375 0 0
0.25 0 0
0.25 0 0
0.25 0 0
0.25 0 0
0.25 0 0
0.25 0 0
0.25 0 0
0.25 0 0
0.25 0 0
0.25 0 0
0.25 0 0
0.25 0 0
0.25 0 0
0.25 0 0
0.25 0 0
0.25 0 0
0.25 0 0
0.25 0 0
0.25 0 0
0.25 0 0
0.25 0 0
0.25 0 0
0.3125 0 0
0.3125 0 0
0.3125 0 0
0.3125 0 0
0.3125 0 0
0.3125 0 0
0.3125 0 0
0.3125 0 0
0.3125 0 0
0.3125 0 0
0.3125 0 0
0.3125 0 0
0.3125 0 0
0.3125 0 0
0.3125 0 0
0.3125 0 0
0.3125 0 0
0.3125 0 0
0.3125 0 0
0.3125 0 0
0.3125 0 0
0.3125 0 0
0.3125 0 0
0.3125 0 0
0.3125 0 0
0.3125 0 0
0.3125 0 0
0.3125 0 0
0.3125 0 0
0.3125 0 0
0.3125 0 0
0.3125 0 0
0.3125 0 0
0.3125 0 0
0.3125 0 0
0.3125 0 0
0.3125 0 0
0.3125 0 0
0.3125 0 0
0.3125 0 0
0.3125 0 0
0.3125 0 0
0.3125 0 0
0.4375 0 0
0.4375 0 0
0.4375 0 0
0.4375 0 0
0 0 0
0 0 0
0 0 0
0 0 0
0.03125 0 0
0.03125 0 0
0.03125 0 0
0.03125 0 0
0.03125 0 0
0.03125 0 0
0.03125 0 0
0.03125 0 0
0.03125 0 0
0.4375 0 0
0.4375 0 0
0.25 0 0
0.25 0 0
0.25 0 0
0.25 0 0
0.25 0 0
0.25 0 0
0.25 0 0
0.25 0 0
0.25 0 0
0.25 0 0
0.25 0 0
0.25 0 0
0.25 0 0
0.25 0 0
0.25 0 0
0.25 0 0
0.25 0 0
0.25 0 0
0.25 0 0
0.25 0 0
0.25 0 0
0.25 0 0
0.3125 0 0
0.3125 0 0
0.3125 0 0
0.3125 0 0
0.3125 0 0
0.3125 0 0
0.3125 0 0
0.3125 0 0
0.3125 0 0
0.3125 0 0
0.3125 0 0
0.3125 0 0
0.3125 0 0
0.3125 0 0
0.3125 0 0
0.3125 0 0
0.3125 0 0
0.3125 0 0
0.3125 0 0
0.3125 0 0
0.3125 0 0
0.3125 0 0
0.3125 0 0
0.3125 0 0
0.3125 0 0
0.3125 0 0
0.3125 0 0
0.3125 0 0
0.3125 0 0
0.3125 0 0
0.3125 0 0
0.3125 0 0
0.3125 0 0
0.3125 0 0
0.3125 0 0
0.3125 0 0
0.3125 0 0
0.3125 0 0
0.3125 0 0
0.3125 0 0
0.3125 0 0
0.3125 0 0
0.3125 0 0
0.4375 0 0
0.4375 0 0
0.4375 0 0
0.4375 0 0
0.4375 0 0
0 0 0
0 0 0
0 0 0
0 0 0
0.03125 0 0
0.03125 0 0
0.03125 0 0
0.03125 0 0
0.03125 0 0
0.03125 0 0
0.03125 0 0
0.03125 0 0
0.4375 0 0
0.4375 0 0
0.25 0 0
0.25 0 0
0.25 0 0
0.25 0 0
0.25 0 0
0.25 0 0
0.25 0 0
0.25 0 0
0.25 0 0
0.25 0 0
0.25 0 0
0.25 0 0
0.25 0 0
0.25 0 0
0.25 0 0
0.25 0 0
0.25 0 0
0.25 0 0
0.25 0 0
0.25 0 0
0.25 0 0
0.25 0 0
0.3125 0 0
0.3125 0 0
0.3125 0 0
0.3125 0 0
0.3125 0 0
0.3125 0 0
0.3125 0 0
0.3125 0 0
0.3125 0 0
0.3125 0 0
0.3125 0 0
0.3125 0 0
0.3125 0 0
0.3125 0 0
0.3125 0 0
0.3125 0 0
0.3125 0 0
0.3125 0 0
0.3125 0 0
0.3125 0 0
0.3125 0 0
0.3125 0 0
0.3125 0 0
0.3125 0 0
0.3125 0 0
0.3125 0 0
0.3125 0 0
0.3125 0 0
0.3125 0 0
0.3125 0 0
0.3125 0 0
0.3125 0 0
0.3125 0 0
0.3125 0 0
0.3125 0 0
0.3125 0 0
0.3125 0 0
0.3125 0 0
0.3125 0 0
0.3125 0 0
0.3125 0 0
0.3125 0 0
0.3125 0 0
0.4375 0 0
0.4375 0 0
0.4375 0 0
0.4375 0 0
0 0 0
0 0 0
0 0 0
0 0 0
0.03125 0 0
0.03125 0 0
0.03125 0 0
0.03125 0 0
0.03125 0 0
0.03125 0 0
0.03125 0 0
0.03125 0 0
