# vtk DataFile Version 1.0
Cube
ASCII

DATASET POLYDATA
POINTS 532 float
6.272227 6.058157 3.635802
3.447397 5.316455 4.341481
1.139947 4.029337 15.574865
8.431635 7.158294 8.904669
0.707274 4.546695 4.147220
8.901811 4.859644 3.446153
5.029278 10.651293 2.254897
5.791974 10.574118 3.762394
6.791674 14.472272 3.403388
6.010989 14.529115 1.901222
7.839061 5.923584 6.607375
1.876887 5.377691 1.329450
4.188125 6.391316 15.108390
5.384179 4.795454 9.370765
3.592359 6.265488 16.391553
5.979611 4.921814 8.087725
2.609564 5.523032 0.027397
2.321689 5.295875 33.112525
7.106457 5.778058 7.909222
2.001534 4.677513 15.464098
7.570240 6.509954 9.015311
2.624999 4.755502 14.209569
6.946542 6.431736 10.269855
3.743383 5.596902 14.029834
5.828615 5.589823 10.449544
4.475984 5.596935 12.763452
5.096156 5.589425 11.715928
2.692072 5.375011 4.250751
7.055594 5.911585 3.794178
0.610144 6.666794 4.289846
-0.853846 6.777497 4.276658
1.245069 5.483804 4.208329
8.501465 5.787090 3.834197
2.566154 12.832894 4.587130
3.419913 11.819955 4.110091
4.633479 12.205014 3.486851
4.978550 13.576346 3.357000
4.112925 14.589074 3.842567
2.906512 14.196618 4.453797
3.051962 10.395469 4.263779
6.654275 0.989033 3.717155
5.697242 7.866480 14.745520
3.875648 3.319605 9.733832
4.586120 7.504476 1.471631
5.129133 3.797272 6.464674
2.082091 4.000752 13.116510
7.488891 7.186596 11.362816
6.929847 2.122949 3.615196
2.766920 9.265524 4.382458
5.534540 11.213662 2.977059
6.218979 13.919938 2.725091
9.145747 6.215942 6.678327
0.570260 5.085343 1.258538
7.117015 5.773362 5.497291
2.598993 5.527921 2.439573
1.597040 2.811277 13.320273
1.874621 4.578547 11.970831
7.969700 8.378339 11.159732
7.699025 6.608613 12.507748
3.235562 4.243153 4.035106
6.353519 4.892728 3.490588
3.401578 6.386862 4.552180
6.503679 7.037902 4.006435
1.312034 7.825332 4.425276
8.766476 7.956826 4.704586
4.250523 0.106373 4.926316
1.394374 12.500931 5.186796
6.128289 5.944579 20.178366
3.303459 5.202877 20.884045
0.996009 3.915759 32.117429
8.287697 7.044716 25.447233
0.563336 4.433117 20.689784
8.757873 4.746065 19.988717
4.885340 10.537715 18.797461
5.648036 10.460540 20.304958
6.647736 14.358694 19.945951
5.867051 14.415537 18.443786
7.695123 5.810006 23.149939
1.732949 5.264113 17.872014
4.044187 6.277738 31.650954
5.240241 4.681876 25.913329
3.448421 6.151909 32.934117
5.835673 4.808235 24.630289
2.465626 5.409454 16.569961
6.962519 5.664480 24.451786
1.857596 4.563935 32.006662
7.426302 6.396376 25.557875
2.481061 4.641924 30.752133
6.802604 6.318158 26.812419
3.599445 5.483324 30.572398
5.684677 5.476245 26.992108
4.332046 5.483357 29.306016
4.952218 5.475846 28.258492
2.548134 5.261433 20.793315
6.911656 5.798006 20.336742
0.466206 6.553216 20.832410
-0.997784 6.663919 20.819222
1.101131 5.370226 20.750892
8.357527 5.673512 20.376761
2.422216 12.719316 21.129694
3.275975 11.706376 20.652655
4.489541 12.091435 20.029415
4.834612 13.462768 19.899564
3.968987 14.475496 20.385131
2.762574 14.083039 20.996361
2.908024 10.281891 20.806343
6.510337 0.875454 20.259719
5.553304 7.752902 31.288084
3.731710 3.206027 26.276396
4.442182 7.390898 18.014195
4.985195 3.683693 23.007237
1.938153 3.887174 29.659074
7.344953 7.073018 27.905380
6.785909 2.009370 20.157759
2.622983 9.151946 20.925022
5.390602 11.100084 19.519623
6.075041 13.806359 19.267655
9.001809 6.102364 23.220891
0.426322 4.971765 17.801102
6.973077 5.659784 22.039855
2.455055 5.414342 18.982137
1.453102 2.697698 29.862837
1.730683 4.464969 28.513395
7.825763 8.264761 27.702296
7.555087 6.495035 29.050312
3.091624 4.129574 20.577670
6.209581 4.779150 20.033152
3.257640 6.273284 21.094744
6.359741 6.924324 20.548999
1.168096 7.711754 20.967840
8.622538 7.843248 21.247149
4.106585 -0.007205 21.468880
1.250436 12.387353 21.729360
4.073034 21.091400 3.635802
1.248204 20.349698 4.341481
-1.059246 19.062580 15.574865
6.232442 22.191537 8.904669
-1.491920 19.579938 4.147220
6.702618 19.892887 3.446153
2.830084 25.684536 2.254897
3.592781 25.607361 3.762394
4.592481 29.505515 3.403388
3.811795 29.562358 1.901222
5.639867 20.956827 6.607375
-0.322307 20.410934 1.329450
1.988932 21.424559 15.108390
3.184986 19.828697 9.370765
1.393165 21.298731 16.391553
3.780418 19.955057 8.087725
0.410371 20.556275 0.027397
0.122495 20.329118 33.112525
4.907263 20.811301 7.909222
-0.197659 19.710756 15.464098
5.371047 21.543197 9.015311
0.425806 19.788745 14.209569
4.747348 21.464979 10.269855
1.544189 20.630145 14.029834
3.629421 20.623066 10.449544
2.276791 20.630178 12.763452
2.896963 20.622668 11.715928
0.492878 20.408254 4.250751
4.856401 20.944828 3.794178
-1.589049 21.700037 4.289846
-3.053039 21.810740 4.276658
-0.954124 20.517047 4.208329
6.302271 20.820333 3.834197
0.366961 27.866137 4.587130
1.220719 26.853198 4.110091
2.434285 27.238257 3.486851
2.779357 28.609589 3.357000
1.913731 29.622317 3.842567
0.707319 29.229861 4.453797
0.852768 25.428712 4.263779
4.455082 16.022276 3.717155
3.498048 22.899723 14.745520
1.676455 18.352848 9.733832
2.386927 22.537719 1.471631
2.929940 18.830515 6.464674
-0.117102 19.033995 13.116510
5.289697 22.219839 11.362816
4.730653 17.156192 3.615196
0.567727 24.298767 4.382458
3.335347 26.246905 2.977059
4.019786 28.953181 2.725091
6.946554 21.249185 6.678327
-1.628934 20.118586 1.258538
4.917821 20.806605 5.497291
0.399800 20.561164 2.439573
-0.602153 17.844520 13.320273
-0.324572 19.611790 11.970831
5.770507 23.411582 11.159732
5.499831 21.641856 12.507748
1.036369 19.276395 4.035106
4.154326 19.925971 3.490588
1.202384 21.420105 4.552180
4.304485 22.071145 4.006435
-0.887160 22.858575 4.425276
6.567283 22.990069 4.704586
2.051330 15.139616 4.926316
-0.804820 27.534174 5.186796
3.929096 20.977822 20.178366
1.104266 20.236120 20.884045
-1.203184 18.949002 32.117429
6.088504 22.077959 25.447233
-1.635857 19.466360 20.689784
6.558680 19.779308 19.988717
2.686146 25.570958 18.797461
3.448843 25.493783 20.304958
4.448543 29.391937 19.945951
3.667858 29.448780 18.443786
5.495929 20.843249 23.149939
-0.466245 20.297356 17.872014
1.844994 21.310981 31.650954
3.041048 19.715119 25.913329
1.249227 21.185152 32.934117
3.636480 19.841478 24.630289
0.266433 20.442697 16.569961
4.763325 20.697723 24.451786
-0.341597 19.597178 32.006662
5.227109 21.429619 25.557875
0.281868 19.675167 30.752133
4.603410 21.351401 26.812419
1.400251 20.516567 30.572398
3.485484 20.509488 26.992108
2.132853 20.516600 29.306016
2.753025 20.509089 28.258492
0.348940 20.294676 20.793315
4.712463 20.831249 20.336742
-1.732987 21.586459 20.832410
-3.196977 21.697162 20.819222
-1.098062 20.403469 20.750892
6.158333 20.706755 20.376761
0.223023 27.752559 21.129694
1.076781 26.739619 20.652655
2.290347 27.124678 20.029415
2.635419 28.496011 19.899564
1.769793 29.508739 20.385131
0.563381 29.116282 20.996361
0.708830 25.315134 20.806343
4.311144 15.908697 20.259719
3.354111 22.786145 31.288084
1.532517 18.239270 26.276396
2.242989 22.424141 18.014195
2.786002 18.716936 23.007237
-0.261040 18.920417 29.659074
5.145759 22.106261 27.905380
4.586715 17.042613 20.157759
0.423789 24.185189 20.925022
3.191409 26.133327 19.519623
3.875848 28.839602 19.267655
6.802616 21.135607 23.220891
-1.772872 20.005008 17.801102
4.773884 20.693027 22.039855
0.255862 20.447585 18.982137
-0.746091 17.730941 29.862837
-0.468510 19.498212 28.513395
5.626569 23.298004 27.702296
5.355893 21.528278 29.050312
0.892431 19.162817 20.577670
4.010388 19.812393 20.033152
1.058446 21.306527 21.094744
4.160547 21.957567 20.548999
-1.031098 22.744997 20.967840
6.423345 22.876491 21.247149
1.907392 15.026038 21.468880
-0.948758 27.420596 21.729360
16.422377 6.058157 3.635802
13.597547 5.316455 4.341481
11.290097 4.029337 15.574865
18.581785 7.158294 8.904669
10.857424 4.546695 4.147220
19.051961 4.859644 3.446153
15.179428 10.651293 2.254897
15.942124 10.574118 3.762394
16.941824 14.472272 3.403388
16.161139 14.529115 1.901222
17.989211 5.923584 6.607375
12.027037 5.377691 1.329450
14.338275 6.391316 15.108390
15.534329 4.795454 9.370765
13.742509 6.265488 16.391553
16.129761 4.921814 8.087725
12.759714 5.523032 0.027397
12.471839 5.295875 33.112525
17.256607 5.778058 7.909222
12.151684 4.677513 15.464098
17.720390 6.509954 9.015311
12.775149 4.755502 14.209569
17.096692 6.431736 10.269855
13.893533 5.596902 14.029834
15.978765 5.589823 10.449544
14.626134 5.596935 12.763452
15.246306 5.589425 11.715928
12.842222 5.375011 4.250751
17.205744 5.911585 3.794178
10.760294 6.666794 4.289846
9.296304 6.777497 4.276658
11.395219 5.483804 4.208329
18.651615 5.787090 3.834197
12.716304 12.832894 4.587130
13.570063 11.819955 4.110091
14.783629 12.205014 3.486851
15.128700 13.576346 3.357000
14.263075 14.589074 3.842567
13.056662 14.196618 4.453797
13.202112 10.395469 4.263779
16.804425 0.989033 3.717155
15.847392 7.866480 14.745520
14.025798 3.319605 9.733832
14.736270 7.504476 1.471631
15.279283 3.797272 6.464674
12.232241 4.000752 13.116510
17.639041 7.186596 11.362816
17.079997 2.122949 3.615196
12.917070 9.265524 4.382458
15.684690 11.213662 2.977059
16.369129 13.919938 2.725091
19.295897 6.215942 6.678327
10.720410 5.085343 1.258538
17.267165 5.773362 5.497291
12.749143 5.527921 2.439573
11.747190 2.811277 13.320273
12.024771 4.578547 11.970831
18.119850 8.378339 11.159732
17.849175 6.608613 12.507748
13.385712 4.243153 4.035106
16.503669 4.892728 3.490588
13.551728 6.386862 4.552180
16.653829 7.037902 4.006435
11.462184 7.825332 4.425276
18.916626 7.956826 4.704586
14.400673 0.106373 4.926316
11.544524 12.500931 5.186796
16.278439 5.944579 20.178366
13.453609 5.202877 20.884045
11.146159 3.915759 32.117429
18.437847 7.044716 25.447233
10.713486 4.433117 20.689784
18.908023 4.746065 19.988717
15.035490 10.537715 18.797461
15.798186 10.460540 20.304958
16.797886 14.358694 19.945951
16.017201 14.415537 18.443786
17.845273 5.810006 23.149939
11.883099 5.264113 17.872014
14.194337 6.277738 31.650954
15.390391 4.681876 25.913329
13.598571 6.151909 32.934117
15.985823 4.808235 24.630289
12.615776 5.409454 16.569961
17.112669 5.664480 24.451786
12.007746 4.563935 32.006662
17.576452 6.396376 25.557875
12.631211 4.641924 30.752133
16.952754 6.318158 26.812419
13.749595 5.483324 30.572398
15.834827 5.476245 26.992108
14.482196 5.483357 29.306016
15.102368 5.475846 28.258492
12.698284 5.261433 20.793315
17.061806 5.798006 20.336742
10.616356 6.553216 20.832410
9.152366 6.663919 20.819222
11.251281 5.370226 20.750892
18.507677 5.673512 20.376761
12.572366 12.719316 21.129694
13.426125 11.706376 20.652655
14.639691 12.091435 20.029415
14.984762 13.462768 19.899564
14.119137 14.475496 20.385131
12.912724 14.083039 20.996361
13.058174 10.281891 20.806343
16.660487 0.875454 20.259719
15.703454 7.752902 31.288084
13.881860 3.206027 26.276396
14.592332 7.390898 18.014195
15.135345 3.683693 23.007237
12.088303 3.887174 29.659074
17.495103 7.073018 27.905380
16.936059 2.009370 20.157759
12.773133 9.151946 20.925022
15.540752 11.100084 19.519623
16.225191 13.806359 19.267655
19.151959 6.102364 23.220891
10.576472 4.971765 17.801102
17.123227 5.659784 22.039855
12.605205 5.414342 18.982137
11.603252 2.697698 29.862837
11.880833 4.464969 28.513395
17.975913 8.264761 27.702296
17.705237 6.495035 29.050312
13.241774 4.129574 20.577670
16.359731 4.779150 20.033152
13.407790 6.273284 21.094744
16.509891 6.924324 20.548999
11.318246 7.711754 20.967840
18.772688 7.843248 21.247149
14.256735 -0.007205 21.468880
11.400586 12.387353 21.729360
14.223184 21.091400 3.635802
11.398354 20.349698 4.341481
9.090904 19.062580 15.574865
16.382592 22.191537 8.904669
8.658230 19.579938 4.147220
16.852768 19.892887 3.446153
12.980234 25.684536 2.254897
13.742931 25.607361 3.762394
14.742631 29.505515 3.403388
13.961945 29.562358 1.901222
15.790017 20.956827 6.607375
9.827843 20.410934 1.329450
12.139082 21.424559 15.108390
13.335136 19.828697 9.370765
11.543315 21.298731 16.391553
13.930568 19.955057 8.087725
10.560521 20.556275 0.027397
10.272645 20.329118 33.112525
15.057413 20.811301 7.909222
9.952491 19.710756 15.464098
15.521197 21.543197 9.015311
10.575956 19.788745 14.209569
14.897498 21.464979 10.269855
11.694339 20.630145 14.029834
13.779571 20.623066 10.449544
12.426941 20.630178 12.763452
13.047113 20.622668 11.715928
10.643028 20.408254 4.250751
15.006551 20.944828 3.794178
8.561101 21.700037 4.289846
7.097111 21.810740 4.276658
9.196026 20.517047 4.208329
16.452421 20.820333 3.834197
10.517111 27.866137 4.587130
11.370869 26.853198 4.110091
12.584435 27.238257 3.486851
12.929507 28.609589 3.357000
12.063881 29.622317 3.842567
10.857469 29.229861 4.453797
11.002918 25.428712 4.263779
14.605232 16.022276 3.717155
13.648198 22.899723 14.745520
11.826605 18.352848 9.733832
12.537077 22.537719 1.471631
13.080090 18.830515 6.464674
10.033048 19.033995 13.116510
15.439847 22.219839 11.362816
14.880803 17.156192 3.615196
10.717877 24.298767 4.382458
13.485497 26.246905 2.977059
14.169936 28.953181 2.725091
17.096704 21.249185 6.678327
8.521216 20.118586 1.258538
15.067971 20.806605 5.497291
10.549950 20.561164 2.439573
9.547997 17.844520 13.320273
9.825578 19.611790 11.970831
15.920657 23.411582 11.159732
15.649981 21.641856 12.507748
11.186519 19.276395 4.035106
14.304476 19.925971 3.490588
11.352534 21.420105 4.552180
14.454635 22.071145 4.006435
9.262990 22.858575 4.425276
16.717433 22.990069 4.704586
12.201480 15.139616 4.926316
9.345330 27.534174 5.186796
14.079246 20.977822 20.178366
11.254416 20.236120 20.884045
8.946966 18.949002 32.117429
16.238654 22.077959 25.447233
8.514293 19.466360 20.689784
16.708830 19.779308 19.988717
12.836296 25.570958 18.797461
13.598993 25.493783 20.304958
14.598693 29.391937 19.945951
13.818008 29.448780 18.443786
15.646079 20.843249 23.149939
9.683905 20.297356 17.872014
11.995144 21.310981 31.650954
13.191198 19.715119 25.913329
11.399377 21.185152 32.934117
13.786630 19.841478 24.630289
10.416583 20.442697 16.569961
14.913475 20.697723 24.451786
9.808553 19.597178 32.006662
15.377259 21.429619 25.557875
10.432018 19.675167 30.752133
14.753560 21.351401 26.812419
11.550401 20.516567 30.572398
13.635634 20.509488 26.992108
12.283003 20.516600 29.306016
12.903175 20.509089 28.258492
10.499090 20.294676 20.793315
14.862613 20.831249 20.336742
8.417163 21.586459 20.832410
6.953173 21.697162 20.819222
9.052088 20.403469 20.750892
16.308483 20.706755 20.376761
10.373173 27.752559 21.129694
11.226931 26.739619 20.652655
12.440497 27.124678 20.029415
12.785569 28.496011 19.899564
11.919943 29.508739 20.385131
10.713531 29.116282 20.996361
10.858980 25.315134 20.806343
14.461294 15.908697 20.259719
13.504261 22.786145 31.288084
11.682667 18.239270 26.276396
12.393139 22.424141 18.014195
12.936152 18.716936 23.007237
9.889110 18.920417 29.659074
15.295909 22.106261 27.905380
14.736865 17.042613 20.157759
10.573939 24.185189 20.925022
13.341559 26.133327 19.519623
14.025998 28.839602 19.267655
16.952766 21.135607 23.220891
8.377278 20.005008 17.801102
14.924034 20.693027 22.039855
10.406012 20.447585 18.982137
9.404059 17.730941 29.862837
9.681640 19.498212 28.513395
15.776719 23.298004 27.702296
15.506043 21.528278 29.050312
11.042581 19.162817 20.577670
14.160538 19.812393 20.033152
11.208596 21.306527 21.094744
14.310697 21.957567 20.548999
9.119052 22.744997 20.967840
16.573495 22.876491 21.247149
12.057542 15.026038 21.468880
9.201392 27.420596 21.729360
POINT_DATA 532
SCALARS my_scalars float
LOOKUP_TABLE default
1.39
1.39
1.09
1.09
1.09
1.09
1.09
1.09
1.09
1.09
1.7
1.7
1.7
1.7
1.7
1.7
1.7
1.7
1.7
1.7
1.7
1.7
1.7
1.7
1.7
1.7
1.7
1.7
1.7
1.7
1.7
1.7
1.7
1.7
1.7
1.7
1.7
1.7
1.7
1.7
1.7
1.98
1.98
1.98
1.98
1.55
1.55
1.55
1.55
1.55
1.55
1.52
1.52
1.52
1.52
1.52
1.52
1.52
1.52
1.52
1.52
1.52
1.52
1.47
1.47
1.47
1.47
1.39
1.39
1.09
1.09
1.09
1.09
1.09
1.09
1.09
1.09
1.7
1.7
1.7
1.7
1.7
1.7
1.7
1.7
1.7
1.7
1.7
1.7
1.7
1.7
1.7
1.7
1.7
1.7
1.7
1.7
1.7
1.7
1.7
1.7
1.7
1.7
1.7
1.7
1.7
1.7
1.98
1.98
1.98
1.98
1.55
1.55
1.55
1.55
1.55
1.55
1.52
1.52
1.52
1.52
1.52
1.52
1.52
1.52
1.52
1.52
1.52
1.52
1.47
1.47
1.47
1.47
1.39
1.39
1.09
1.09
1.09
1.09
1.09
1.09
1.09
1.09
1.7
1.7
1.7
1.7
1.7
1.7
1.7
1.7
1.7
1.7
1.7
1.7
1.7
1.7
1.7
1.7
1.7
1.7
1.7
1.7
1.7
1.7
1.7
1.7
1.7
1.7
1.7
1.7
1.7
1.7
1.7
1.98
1.98
1.98
1.98
1.55
1.55
1.55
1.55
1.55
1.55
1.52
1.52
1.52
1.52
1.52
1.52
1.52
1.52
1.52
1.52
1.52
1.52
1.47
1.47
1.47
1.47
1.39
1.39
1.09
1.09
1.09
1.09
1.09
1.09
1.09
1.09
1.7
1.7
1.7
1.7
1.7
1.7
1.7
1.7
1.7
1.7
1.7
1.7
1.7
1.7
1.7
1.7
1.7
1.7
1.7
1.7
1.7
1.7
1.7
1.7
1.7
1.7
1.7
1.7
1.7
1.7
1.98
1.98
1.98
1.98
1.55
1.55
1.55
1.55
1.55
1.55
1.52
1.52
1.52
1.52
1.52
1.52
1.52
1.52
1.52
1.52
1.52
1.52
1.47
1.47
1.47
1.47
1.39
1.39
1.09
1.09
1.09
1.09
1.09
1.09
1.09
1.09
1.7
1.7
1.7
1.7
1.7
1.7
1.7
1.7
1.7
1.7
1.7
1.7
1.7
1.7
1.7
1.7
1.7
1.7
1.7
1.7
1.7
1.7
1.7
1.7
1.7
1.7
1.7
1.7
1.7
1.7
1.7
1.98
1.98
1.98
1.98
1.55
1.55
1.55
1.55
1.55
1.55
1.52
1.52
1.52
1.52
1.52
1.52
1.52
1.52
1.52
1.52
1.52
1.52
1.47
1.47
1.47
1.47
1.39
1.39
1.09
1.09
1.09
1.09
1.09
1.09
1.09
1.09
1.7
1.7
1.7
1.7
1.7
1.7
1.7
1.7
1.7
1.7
1.7
1.7
1.7
1.7
1.7
1.7
1.7
1.7
1.7
1.7
1.7
1.7
1.7
1.7
1.7
1.7
1.7
1.7
1.7
1.7
1.98
1.98
1.98
1.98
1.55
1.55
1.55
1.55
1.55
1.55
1.52
1.52
1.52
1.52
1.52
1.52
1.52
1.52
1.52
1.52
1.52
1.52
1.47
1.47
1.47
1.47
1.39
1.39
1.09
1.09
1.09
1.09
1.09
1.09
1.09
1.09
1.7
1.7
1.7
1.7
1.7
1.7
1.7
1.7
1.7
1.7
1.7
1.7
1.7
1.7
1.7
1.7
1.7
1.7
1.7
1.7
1.7
1.7
1.7
1.7
1.7
1.7
1.7
1.7
1.7
1.7
1.7
1.98
1.98
1.98
1.98
1.55
1.55
1.55
1.55
1.55
1.55
1.52
1.52
1.52
1.52
1.52
1.52
1.52
1.52
1.52
1.52
1.52
1.52
1.47
1.47
1.47
1.47
1.39
1.39
1.09
1.09
1.09
1.09
1.09
1.09
1.09
1.09
1.7
1.7
1.7
1.7
1.7
1.7
1.7
1.7
1.7
1.7
1.7
1.7
1.7
1.7
1.7
1.7
1.7
1.7
1.7
1.7
1.7
1.7
1.7
1.7
1.7
1.7
1.7
1.7
1.7
1.7
1.98
1.98
1.98
1.98
1.55
1.55
1.55
1.55
1.55
1.55
1.52
1.52
1.52
1.52
1.52
1.52
1.52
1.52
1.52
1.52
1.52
1.52
1.47
1.47
1.47
1.47
VECTORS vectors float
0.4375 0 0
0.4375 0 0
0.25 0 0
0.25 0 0
0.25 0 0
0.25 0 0
0.25 0 0
0.25 0 0
0.25 0 0
0.25 0 0
0.3125 0 0
0.3125 0 0
0.3125 0 0
0.3125 0 0
0.3125 0 0
0.3125 0 0
0.3125 0 0
0.3125 0 0
0.3125 0 0
0.3125 0 0
0.3125 0 0
0.3125 0 0
0.3125 0 0
0.3125 0 0
0.3125 0 0
0.3125 0 0
0.3125 0 0
0.3125 0 0
0.3125 0 0
0.3125 0 0
0.3125 0 0
0.3125 0 0
0.3125 0 0
0.3125 0 0
0.3125 0 0
0.3125 0 0
0.3125 0 0
0.3125 0 0
0.3125 0 0
0.3125 0 0
0.3125 0 0
0.4375 0 0
0.4375 0 0
0.4375 0 0
0.4375 0 0
0 0 0
0 0 0
0 0 0
0 0 0
0 0 0
0 0 0
0.03125 0 0
0.03125 0 0
0.03125 0 0
0.03125 0 0
0.03125 0 0
0.03125 0 0
0.03125 0 0
0.03125 0 0
0.03125 0 0
0.03125 0 0
0.03125 0 0
0.03125 0 0
0.4375 0 0
0.4375 0 0
0.4375 0 0
0.4375 0 0
0.4375 0 0
0.4375 0 0
0.25 0 0
0.25 0 0
0.25 0 0
0.25 0 0
0.25 0 0
0.25 0 0
0.25 0 0
0.25 0 0
0.3125 0 0
0.3125 0 0
0.3125 0 0
0.3125 0 0
0.3125 0 0
0.3125 0 0
0.3125 0 0
0.3125 0 0
0.3125 0 0
0.3125 0 0
0.3125 0 0
0.3125 0 0
0.3125 0 0
0.3125 0 0
0.3125 0 0
0.3125 0 0
0.3125 0 0
0.3125 0 0
0.3125 0 0
0.3125 0 0
0.3125 0 0
0.3125 0 0
0.3125 0 0
0.3125 0 0
0.3125 0 0
0.3125 0 0
0.3125 0 0
0.3125 0 0
0.3125 0 0
0.3125 0 0
0.4375 0 0
0.4375 0 0
0.4375 0 0
0.4375 0 0
0 0 0
0 0 0
0 0 0
0 0 0
0 0 0
0 0 0
0.03125 0 0
0.03125 0 0
0.03125 0 0
0.03125 0 0
0.03125 0 0
0.03125 0 0
0.03125 0 0
0.03125 0 0
0.03125 0 0
0.03125 0 0
0.03125 0 0
0.03125 0 0
0.4375 0 0
0.4375 0 0
0.4375 0 0
0.4375 0 0
0.4375 0 0
0.4375 0 0
0.25 0 0
0.25 0 0
0.25 0 0
0.25 0 0
0.25 0 0
0.25 0 0
0.25 0 0
0.25 0 0
0.3125 0 0
0.3125 0 0
0.3125 0 0
0.3125 0 0
0.3125 0 0
0.3125 0 0
0.3125 0 0
0.3125 0 0
0.3125 0 0
0.3125 0 0
0.3125 0 0
0.3125 0 0
0.3125 0 0
0.3125 0 0
0.3125 0 0
0.3125 0 0
0.3125 0 0
0.3125 0 0
0.3125 0 0
0.3125 0 0
0.3125 0 0
0.3125 0 0
0.3125 0 0
0.3125 0 0
0.3125 0 0
0.3125 0 0
0.3125 0 0
0.3125 0 0
0.3125 0 0
0.3125 0 0
0.3125 0 0
0.4375 0 0
0.4375 0 0
0.4375 0 0
0.4375 0 0
0 0 0
0 0 0
0 0 0
0 0 0
0 0 0
0 0 0
0.03125 0 0
0.03125 0 0
0.03125 0 0
0.03125 0 0
0.03125 0 0
0.03125 0 0
0.03125 0 0
0.03125 0 0
0.03125 0 0
0.03125 0 0
0.03125 0 0
0.03125 0 0
0.4375 0 0
0.4375 0 0
0.4375 0 0
0.4375 0 0
0.4375 0 0
0.4375 0 0
0.25 0 0
0.25 0 0
0.25 0 0
0.25 0 0
0.25 0 0
0.25 0 0
0.25 0 0
0.25 0 0
0.3125 0 0
0.3125 0 0
0.3125 0 0
0.3125 0 0
0.3125 0 0
0.3125 0 0
0.3125 0 0
0.3125 0 0
0.3125 0 0
0.3125 0 0
0.3125 0 0
0.3125 0 0
0.3125 0 0
0.3125 0 0
0.3125 0 0
0.3125 0 0
0.3125 0 0
0.3125 0 0
0.3125 0 0
0.3125 0 0
0.3125 0 0
0.3125 0 0
0.3125 0 0
0.3125 0 0
0.3125 0 0
0.3125 0 0
0.3125 0 0
0.3125 0 0
0.3125 0 0
0.3125 0 0
0.4375 0 0
0.4375 0 0
0.4375 0 0
0.4375 0 0
0 0 0
0 0 0
0 0 0
0 0 0
0 0 0
0 0 0
0.03125 0 0
0.03125 0 0
0.03125 0 0
0.03125 0 0
0.03125 0 0
0.03125 0 0
0.03125 0 0
0.03125 0 0
0.03125 0 0
0.03125 0 0
0.03125 0 0
0.03125 0 0
0.4375 0 0
0.4375 0 0
0.4375 0 0
0.4375 0 0
0.4375 0 0
0.4375 0 0
0.25 0 0
0.25 0 0
0.25 0 0
0.25 0 0
0.25 0 0
0.25 0 0
0.25 0 0
0.25 0 0
0.3125 0 0
0.3125 0 0
0.3125 0 0
0.3125 0 0
0.3125 0 0
0.3125 0 0
0.3125 0 0
0.3125 0 0
0.3125 0 0
0.3125 0 0
0.3125 0 0
0.3125 0 0
0.3125 0 0
0.3125 0 0
0.3125 0 0
0.3125 0 0
0.3125 0 0
0.3125 0 0
0.3125 0 0
0.3125 0 0
0.3125 0 0
0.3125 0 0
0.3125 0 0
0.3125 0 0
0.3125 0 0
0.3125 0 0
0.3125 0 0
0.3125 0 0
0.3125 0 0
0.3125 0 0
0.3125 0 0
0.4375 0 0
0.4375 0 0
0.4375 0 0
0.4375 0 0
0 0 0
0 0 0
0 0 0
0 0 0
0 0 0
0 0 0
0.03125 0 0
0.03125 0 0
0.03125 0 0
0.03125 0 0
0.03125 0 0
0.03125 0 0
0.03125 0 0
0.03125 0 0
0.03125 0 0
0.03125 0 0
0.03125 0 0
0.03125 0 0
0.4375 0 0
0.4375 0 0
0.4375 0 0
0.4375 0 0
0.4375 0 0
0.4375 0 0
0.25 0 0
0.25 0 0
0.25 0 0
0.25 0 0
0.25 0 0
0.25 0 0
0.25 0 0
0.25 0 0
0.3125 0 0
0.3125 0 0
0.3125 0 0
0.3125 0 0
0.3125 0 0
0.3125 0 0
0.3125 0 0
0.3125 0 0
0.3125 0 0
0.3125 0 0
0.3125 0 0
0.3125 0 0
0.3125 0 0
0.3125 0 0
0.3125 0 0
0.3125 0 0
0.3125 0 0
0.3125 0 0
0.3125 0 0
0.3125 0 0
0.3125 0 0
0.3125 0 0
0.3125 0 0
0.3125 0 0
0.3125 0 0
0.3125 0 0
0.3125 0 0
0.3125 0 0
0.3125 0 0
0.3125 0 0
0.4375 0 0
0.4375 0 0
0.4375 0 0
0.4375 0 0
0 0 0
0 0 0
0 0 0
0 0 0
0 0 0
0 0 0
0.03125 0 0
0.03125 0 0
0.03125 0 0
0.03125 0 0
0.03125 0 0
0.03125 0 0
0.03125 0 0
0.03125 0 0
0.03125 0 0
0.03125 0 0
0.03125 0 0
0.03125 0 0
0.4375 0 0
0.4375 0 0
0.4375 0 0
0.4375 0 0
0.4375 0 0
0.4375 0 0
0.25 0 0
0.25 0 0
0.25 0 0
0.25 0 0
0.25 0 0
0.25 0 0
0.25 0 0
0.25 0 0
0.3125 0 0
0.3125 0 0
0.3125 0 0
0.3125 0 0
0.3125 0 0
0.3125 0 0
0.3125 0 0
0.3125 0 0
0.3125 0 0
0.3125 0 0
0.3125 0 0
0.3125 0 0
0.3125 0 0
0.3125 0 0
0.3125 0 0
0.3125 0 0
0.3125 0 0
0.3125 0 0
0.3125 0 0
0.3125 0 0
0.3125 0 0
0.3125 0 0
0.3125 0 0
0.3125 0 0
0.3125 0 0
0.3125 0 0
0.3125 0 0
0.3125 0 0
0.3125 0 0
0.3125 0 0
0.3125 0 0
0.4375 0 0
0.4375 0 0
0.4375 0 0
0.4375 0 0
0 0 0
0 0 0
0 0 0
0 0 0
0 0 0
0 0 0
0.03125 0 0
0.03125 0 0
0.03125 0 0
0.03125 0 0
0.03125 0 0
0.03125 0 0
0.03125 0 0
0.03125 0 0
0.03125 0 0
0.03125 0 0
0.03125 0 0
0.03125 0 0
0.4375 0 0
0.4375 0 0
0.4375 0 0
0.4375 0 0
0.4375 0 0
0.4375 0 0
0.25 0 0
0.25 0 0
0.25 0 0
0.25 0 0
0.25 0 0
0.25 0 0
0.25 0 0
0.25 0 0
0.3125 0 0
0.3125 0 0
0.3125 0 0
0.3125 0 0
0.3125 0 0
0.3125 0 0
0.3125 0 0
0.3125 0 0
0.3125 0 0
0.3125 0 0
0.3125 0 0
0.3125 0 0
0.3125 0 0
0.3125 0 0
0.3125 0 0
0.3125 0 0
0.3125 0 0
0.3125 0 0
0.3125 0 0
0.3125 0 0
0.3125 0 0
0.3125 0 0
0.3125 0 0
0.3125 0 0
0.3125 0 0
0.3125 0 0
0.3125 0 0
0.3125 0 0
0.3125 0 0
0.3125 0 0
0.4375 0 0
0.4375 0 0
0.4375 0 0
0.4375 0 0
0 0 0
0 0 0
0 0 0
0 0 0
0 0 0
0 0 0
0.03125 0 0
0.03125 0 0
0.03125 0 0
0.03125 0 0
0.03125 0 0
0.03125 0 0
0.03125 0 0
0.03125 0 0
0.03125 0 0
0.03125 0 0
0.03125 0 0
0.03125 0 0
0.4375 0 0
0.4375 0 0
0.4375 0 0
0.4375 0 0
