# vtk DataFile Version 1.0
Cube
ASCII

DATASET POLYDATA
POINTS 576 float
3.648905 6.505739 2.437304
4.459824 4.064485 3.047027
5.311286 10.294708 0.686315
2.716706 8.747396 6.772914
3.362729 10.975702 7.480476
4.107253 1.366959 0.925493
2.803632 6.719629 5.956322
4.209846 3.231151 7.441787
3.270808 6.511828 6.974432
4.583023 4.342054 15.551615
4.043591 2.984304 9.758985
4.549220 8.752608 13.555836
4.812708 8.674014 11.143312
4.853021 3.210773 12.033129
5.347618 8.321674 2.482911
3.386732 8.996182 4.716708
3.152097 9.411281 6.039282
3.447208 10.714938 6.432706
3.647337 0.549649 5.478826
3.685813 0.171576 4.107889
3.955725 9.933443 3.809046
4.639406 9.590104 2.617102
4.809022 10.549646 1.612490
4.106115 0.685718 1.767564
3.573500 1.069512 3.007678
2.732627 2.283760 3.087410
2.686334 7.774834 4.215710
4.155023 1.863227 5.959517
8.463490 5.164444 2.747260
9.942266 5.294138 2.740665
3.936882 5.676941 6.818722
3.806010 5.084070 15.525465
5.084296 3.762144 7.107043
2.725287 7.005859 15.254518
4.410417 4.788084 7.778158
3.822496 6.264498 14.810195
4.447297 5.041809 9.215479
4.883932 6.620682 13.838949
4.850342 4.081822 11.389544
4.926457 7.758899 11.708559
4.388409 3.953402 10.093158
4.804565 7.811836 13.097515
4.703809 6.341344 9.717960
5.494548 5.528005 13.217313
4.949986 6.496563 11.085062
5.173675 5.347313 11.878488
7.279504 5.067145 2.749783
0.678945 5.399763 2.734974
4.396935 5.284058 5.631261
2.898019 5.172566 16.486940
5.131575 4.076923 5.810856
2.163378 6.379701 16.307345
5.361994 2.449220 7.608384
2.583652 8.408666 15.056447
4.758271 7.483556 8.853121
6.404010 4.659522 13.925183
6.644931 8.280102 2.608651
4.654591 7.279817 2.191965
2.196693 2.573233 4.229468
2.448937 2.968968 2.008600
2.216552 7.782251 3.088240
2.451113 6.650234 5.014565
4.904938 2.527694 5.257173
3.799064 2.328756 7.229510
6.111793 2.292230 8.660453
5.108056 1.416932 6.859774
3.360418 9.230213 15.699635
1.853919 8.848786 14.074475
5.825442 7.711815 8.145260
3.772463 8.332337 8.825882
6.901660 5.045395 15.064994
6.951784 3.641856 13.326910
2.947163 6.480576 19.107522
3.758082 4.039322 19.717244
4.609544 10.269545 17.356533
2.014965 8.722233 23.443131
2.660987 10.950539 24.150693
3.405511 1.341796 17.595711
2.101890 6.694466 22.626540
3.508104 3.205988 24.112005
2.569067 6.486665 23.644650
3.881282 4.316891 32.221833
3.341850 2.959141 26.429202
3.847479 8.727445 30.226053
4.110967 8.648851 27.813529
4.151280 3.185610 28.703346
4.645876 8.296511 19.153129
2.684991 8.971019 21.386925
2.450356 9.386118 22.709500
2.745466 10.689775 23.102923
2.945595 0.524486 22.149043
2.984072 0.146413 20.778107
3.253983 9.908280 20.479263
3.937664 9.564941 19.287320
4.107281 10.524483 18.282707
3.404374 0.660555 18.437782
2.871758 1.044349 19.677896
2.030885 2.258597 19.757627
1.984593 7.749671 20.885928
3.453281 1.838064 22.629734
7.761749 5.139281 19.417477
9.240525 5.268975 19.410882
3.235141 5.651778 23.488939
3.104269 5.058908 32.195683
4.382554 3.736981 23.777260
2.023545 6.980696 31.924736
3.708675 4.762921 24.448375
3.120754 6.239335 31.480412
3.745556 5.016647 25.885697
4.182190 6.595519 30.509167
4.148600 4.056659 28.059762
4.224716 7.733736 28.378776
3.686667 3.928239 26.763375
4.102823 7.786673 29.767732
4.002067 6.316181 26.388177
4.792806 5.502842 29.887531
4.248245 6.471400 27.755279
4.471934 5.322150 28.548706
6.577762 5.041982 19.420001
-0.022796 5.374600 19.405191
3.695193 5.258895 22.301479
2.196277 5.147403 33.157158
4.429834 4.051760 22.481074
1.461636 6.354538 32.977563
4.660253 2.424057 24.278601
1.881910 8.383503 31.726665
4.056530 7.458393 25.523338
5.702269 4.634359 30.595400
5.943189 8.254939 19.278869
3.952850 7.254654 18.862183
1.494951 2.548070 20.899686
1.747195 2.943805 18.678817
1.514811 7.757088 19.758458
1.749372 6.625071 21.684782
4.203197 2.502531 21.927391
3.097323 2.303593 23.899727
5.410051 2.267067 25.330670
4.406315 1.391769 23.529991
2.658676 9.205050 32.369853
1.152178 8.823623 30.744693
5.123700 7.686652 24.815477
3.070721 8.307174 25.496099
6.199918 5.020232 31.735211
6.250043 3.616693 29.997127
3.799368 17.637413 2.437304
4.610287 15.196159 3.047027
5.461749 21.426381 0.686315
2.867169 19.879069 6.772914
3.513192 22.107375 7.480476
4.257716 12.498632 0.925493
2.954095 17.851302 5.956322
4.360309 14.362824 7.441787
3.421271 17.643501 6.974432
4.733486 15.473728 15.551615
4.194054 14.115977 9.758985
4.699683 19.884281 13.555836
4.963171 19.805687 11.143312
5.003484 14.342447 12.033129
5.498081 19.453347 2.482911
3.537195 20.127855 4.716708
3.302560 20.542955 6.039282
3.597671 21.846611 6.432706
3.797800 11.681323 5.478826
3.836276 11.303249 4.107889
4.106188 21.065116 3.809046
4.789869 20.721777 2.617102
4.959485 21.681320 1.612490
4.256578 11.817391 1.767564
3.723963 12.201185 3.007678
2.883090 13.415433 3.087410
2.836797 18.906507 4.215710
4.305486 12.994900 5.959517
8.613953 16.296117 2.747260
10.092729 16.425811 2.740665
4.087345 16.808614 6.818722
3.956473 16.215744 15.525465
5.234759 14.893817 7.107043
2.875750 18.137532 15.254518
4.560880 15.919757 7.778158
3.972959 17.396171 14.810195
4.597760 16.173483 9.215479
5.034395 17.752355 13.838949
5.000804 15.213495 11.389544
5.076920 18.890572 11.708559
4.538872 15.085075 10.093158
4.955028 18.943509 13.097515
4.854272 17.473018 9.717960
5.645011 16.659678 13.217313
5.100449 17.628236 11.085062
5.324138 16.478986 11.878488
7.429967 16.198818 2.749783
0.829408 16.531437 2.734974
4.547398 16.415731 5.631261
3.048482 16.304239 16.486940
5.282038 15.208596 5.810856
2.313841 17.511374 16.307345
5.512457 13.580893 7.608384
2.734115 19.540339 15.056447
4.908734 18.615230 8.853121
6.554473 15.791195 13.925183
6.795394 19.411775 2.608651
4.805054 18.411490 2.191965
2.347156 13.704906 4.229468
2.599400 14.100641 2.008600
2.367015 18.913924 3.088240
2.601576 17.781908 5.014565
5.055401 13.659367 5.257173
3.949527 13.460429 7.229510
6.262256 13.423903 8.660453
5.258519 12.548605 6.859774
3.510881 20.361886 15.699635
2.004382 19.980459 14.074475
5.975905 18.843488 8.145260
3.922926 19.464010 8.825882
7.052123 16.177068 15.064994
7.102247 14.773529 13.326910
3.097626 17.612250 19.107522
3.908545 15.170996 19.717244
4.760007 21.401218 17.356533
2.165428 19.853906 23.443131
2.811450 22.082212 24.150693
3.555974 12.473469 17.595711
2.252353 17.826139 22.626540
3.658567 14.337661 24.112005
2.719530 17.618338 23.644650
4.031745 15.448565 32.221833
3.492313 14.090814 26.429202
3.997942 19.859118 30.226053
4.261429 19.780524 27.813529
4.301743 14.317284 28.703346
4.796339 19.428184 19.153129
2.835454 20.102692 21.386925
2.600819 20.517792 22.709500
2.895929 21.821448 23.102923
3.096058 11.656160 22.149043
3.134535 11.278086 20.778107
3.404446 21.039953 20.479263
4.088127 20.696614 19.287320
4.257744 21.656157 18.282707
3.554837 11.792228 18.437782
3.022221 12.176022 19.677896
2.181348 13.390270 19.757627
2.135056 18.881344 20.885928
3.603744 12.969737 22.629734
7.912212 16.270954 19.417477
9.390988 16.400648 19.410882
3.385604 16.783451 23.488939
3.254732 16.190581 32.195683
4.533017 14.868654 23.777260
2.174008 18.112369 31.924736
3.859138 15.894594 24.448375
3.271217 17.371008 31.480412
3.896019 16.148320 25.885697
4.332653 17.727192 30.509167
4.299063 15.188332 28.059762
4.375179 18.865409 28.378776
3.837130 15.059912 26.763375
4.253286 18.918346 29.767732
4.152530 17.447855 26.388177
4.943269 16.634515 29.887531
4.398708 17.603073 27.755279
4.622397 16.453823 28.548706
6.728225 16.173655 19.420001
0.127667 16.506274 19.405191
3.845656 16.390569 22.301479
2.346740 16.279076 33.157158
4.580297 15.183433 22.481074
1.612099 17.486211 32.977563
4.810716 13.555730 24.278601
2.032373 19.515176 31.726665
4.206993 18.590067 25.523338
5.852732 15.766032 30.595400
6.093652 19.386612 19.278869
4.103313 18.386327 18.862183
1.645414 13.679743 20.899686
1.897658 14.075478 18.678817
1.665274 18.888761 19.758458
1.899835 17.756745 21.684782
4.353660 13.634204 21.927391
3.247786 13.435266 23.899727
5.560514 13.398740 25.330670
4.556777 12.523442 23.529991
2.809139 20.336723 32.369853
1.302640 19.955296 30.744693
5.274163 18.818325 24.815477
3.221184 19.438847 25.496099
6.350381 16.151905 31.735211
6.400506 14.748367 29.997127
14.094635 6.505739 2.437304
14.905554 4.064485 3.047027
15.757016 10.294708 0.686315
13.162436 8.747396 6.772914
13.808459 10.975702 7.480476
14.552983 1.366959 0.925493
13.249362 6.719629 5.956322
14.655576 3.231151 7.441787
13.716538 6.511828 6.974432
15.028753 4.342054 15.551615
14.489321 2.984304 9.758985
14.994950 8.752608 13.555836
15.258438 8.674014 11.143312
15.298751 3.210773 12.033129
15.793348 8.321674 2.482911
13.832462 8.996182 4.716708
13.597827 9.411281 6.039282
13.892938 10.714938 6.432706
14.093067 0.549649 5.478826
14.131543 0.171576 4.107889
14.401455 9.933443 3.809046
15.085136 9.590104 2.617102
15.254752 10.549646 1.612490
14.551845 0.685718 1.767564
14.019230 1.069512 3.007678
13.178357 2.283760 3.087410
13.132064 7.774834 4.215710
14.600753 1.863227 5.959517
18.909220 5.164444 2.747260
20.387996 5.294138 2.740665
14.382612 5.676941 6.818722
14.251740 5.084070 15.525465
15.530026 3.762144 7.107043
13.171017 7.005859 15.254518
14.856147 4.788084 7.778158
14.268226 6.264498 14.810195
14.893027 5.041809 9.215479
15.329662 6.620682 13.838949
15.296072 4.081822 11.389544
15.372187 7.758899 11.708559
14.834139 3.953402 10.093158
15.250295 7.811836 13.097515
15.149539 6.341344 9.717960
15.940278 5.528005 13.217313
15.395716 6.496563 11.085062
15.619405 5.347313 11.878488
17.725234 5.067145 2.749783
11.124675 5.399763 2.734974
14.842665 5.284058 5.631261
13.343749 5.172566 16.486940
15.577305 4.076923 5.810856
12.609108 6.379701 16.307345
15.807724 2.449220 7.608384
13.029382 8.408666 15.056447
15.204001 7.483556 8.853121
16.849740 4.659522 13.925183
17.090661 8.280102 2.608651
15.100321 7.279817 2.191965
12.642423 2.573233 4.229468
12.894667 2.968968 2.008600
12.662282 7.782251 3.088240
12.896843 6.650234 5.014565
15.350668 2.527694 5.257173
14.244794 2.328756 7.229510
16.557523 2.292230 8.660453
15.553786 1.416932 6.859774
13.806148 9.230213 15.699635
12.299649 8.848786 14.074475
16.271172 7.711815 8.145260
14.218193 8.332337 8.825882
17.347390 5.045395 15.064994
17.397514 3.641856 13.326910
13.392893 6.480576 19.107522
14.203812 4.039322 19.717244
15.055274 10.269545 17.356533
12.460695 8.722233 23.443131
13.106717 10.950539 24.150693
13.851241 1.341796 17.595711
12.547620 6.694466 22.626540
13.953834 3.205988 24.112005
13.014797 6.486665 23.644650
14.327012 4.316891 32.221833
13.787580 2.959141 26.429202
14.293209 8.727445 30.226053
14.556697 8.648851 27.813529
14.597010 3.185610 28.703346
15.091606 8.296511 19.153129
13.130721 8.971019 21.386925
12.896086 9.386118 22.709500
13.191196 10.689775 23.102923
13.391325 0.524486 22.149043
13.429802 0.146413 20.778107
13.699713 9.908280 20.479263
14.383394 9.564941 19.287320
14.553011 10.524483 18.282707
13.850104 0.660555 18.437782
13.317488 1.044349 19.677896
12.476615 2.258597 19.757627
12.430323 7.749671 20.885928
13.899011 1.838064 22.629734
18.207479 5.139281 19.417477
19.686255 5.268975 19.410882
13.680871 5.651778 23.488939
13.549999 5.058908 32.195683
14.828284 3.736981 23.777260
12.469275 6.980696 31.924736
14.154405 4.762921 24.448375
13.566484 6.239335 31.480412
14.191286 5.016647 25.885697
14.627920 6.595519 30.509167
14.594330 4.056659 28.059762
14.670446 7.733736 28.378776
14.132397 3.928239 26.763375
14.548553 7.786673 29.767732
14.447797 6.316181 26.388177
15.238536 5.502842 29.887531
14.693975 6.471400 27.755279
14.917664 5.322150 28.548706
17.023492 5.041982 19.420001
10.422934 5.374600 19.405191
14.140923 5.258895 22.301479
12.642007 5.147403 33.157158
14.875564 4.051760 22.481074
11.907366 6.354538 32.977563
15.105983 2.424057 24.278601
12.327640 8.383503 31.726665
14.502260 7.458393 25.523338
16.147999 4.634359 30.595400
16.388919 8.254939 19.278869
14.398580 7.254654 18.862183
11.940681 2.548070 20.899686
12.192925 2.943805 18.678817
11.960541 7.757088 19.758458
12.195102 6.625071 21.684782
14.648927 2.502531 21.927391
13.543053 2.303593 23.899727
15.855781 2.267067 25.330670
14.852045 1.391769 23.529991
13.104406 9.205050 32.369853
11.597908 8.823623 30.744693
15.569430 7.686652 24.815477
13.516451 8.307174 25.496099
16.645648 5.020232 31.735211
16.695773 3.616693 29.997127
14.245098 17.637413 2.437304
15.056017 15.196159 3.047027
15.907479 21.426381 0.686315
13.312899 19.879069 6.772914
13.958922 22.107375 7.480476
14.703446 12.498632 0.925493
13.399825 17.851302 5.956322
14.806039 14.362824 7.441787
13.867001 17.643501 6.974432
15.179216 15.473728 15.551615
14.639784 14.115977 9.758985
15.145413 19.884281 13.555836
15.408901 19.805687 11.143312
15.449214 14.342447 12.033129
15.943811 19.453347 2.482911
13.982925 20.127855 4.716708
13.748290 20.542955 6.039282
14.043401 21.846611 6.432706
14.243530 11.681323 5.478826
14.282006 11.303249 4.107889
14.551918 21.065116 3.809046
15.235599 20.721777 2.617102
15.405215 21.681320 1.612490
14.702308 11.817391 1.767564
14.169693 12.201185 3.007678
13.328820 13.415433 3.087410
13.282527 18.906507 4.215710
14.751216 12.994900 5.959517
19.059683 16.296117 2.747260
20.538459 16.425811 2.740665
14.533075 16.808614 6.818722
14.402203 16.215744 15.525465
15.680489 14.893817 7.107043
13.321480 18.137532 15.254518
15.006610 15.919757 7.778158
14.418689 17.396171 14.810195
15.043490 16.173483 9.215479
15.480125 17.752355 13.838949
15.446534 15.213495 11.389544
15.522650 18.890572 11.708559
14.984602 15.085075 10.093158
15.400758 18.943509 13.097515
15.300002 17.473018 9.717960
16.090741 16.659678 13.217313
15.546179 17.628236 11.085062
15.769868 16.478986 11.878488
17.875697 16.198818 2.749783
11.275138 16.531437 2.734974
14.993128 16.415731 5.631261
13.494212 16.304239 16.486940
15.727768 15.208596 5.810856
12.759571 17.511374 16.307345
15.958187 13.580893 7.608384
13.179845 19.540339 15.056447
15.354464 18.615230 8.853121
17.000203 15.791195 13.925183
17.241124 19.411775 2.608651
15.250784 18.411490 2.191965
12.792886 13.704906 4.229468
13.045130 14.100641 2.008600
12.812745 18.913924 3.088240
13.047306 17.781908 5.014565
15.501131 13.659367 5.257173
14.395257 13.460429 7.229510
16.707986 13.423903 8.660453
15.704249 12.548605 6.859774
13.956611 20.361886 15.699635
12.450112 19.980459 14.074475
16.421635 18.843488 8.145260
14.368656 19.464010 8.825882
17.497853 16.177068 15.064994
17.547977 14.773529 13.326910
13.543356 17.612250 19.107522
14.354275 15.170996 19.717244
15.205737 21.401218 17.356533
12.611158 19.853906 23.443131
13.257180 22.082212 24.150693
14.001704 12.473469 17.595711
12.698083 17.826139 22.626540
14.104297 14.337661 24.112005
13.165260 17.618338 23.644650
14.477475 15.448565 32.221833
13.938043 14.090814 26.429202
14.443672 19.859118 30.226053
14.707159 19.780524 27.813529
14.747473 14.317284 28.703346
15.242069 19.428184 19.153129
13.281184 20.102692 21.386925
13.046549 20.517792 22.709500
13.341659 21.821448 23.102923
13.541788 11.656160 22.149043
13.580265 11.278086 20.778107
13.850176 21.039953 20.479263
14.533857 20.696614 19.287320
14.703474 21.656157 18.282707
14.000567 11.792228 18.437782
13.467951 12.176022 19.677896
12.627078 13.390270 19.757627
12.580786 18.881344 20.885928
14.049474 12.969737 22.629734
18.357942 16.270954 19.417477
19.836718 16.400648 19.410882
13.831334 16.783451 23.488939
13.700462 16.190581 32.195683
14.978747 14.868654 23.777260
12.619738 18.112369 31.924736
14.304868 15.894594 24.448375
13.716947 17.371008 31.480412
14.341749 16.148320 25.885697
14.778383 17.727192 30.509167
14.744793 15.188332 28.059762
14.820909 18.865409 28.378776
14.282860 15.059912 26.763375
14.699016 18.918346 29.767732
14.598260 17.447855 26.388177
15.388999 16.634515 29.887531
14.844438 17.603073 27.755279
15.068127 16.453823 28.548706
17.173955 16.173655 19.420001
10.573397 16.506274 19.405191
14.291386 16.390569 22.301479
12.792470 16.279076 33.157158
15.026027 15.183433 22.481074
12.057829 17.486211 32.977563
15.256446 13.555730 24.278601
12.478103 19.515176 31.726665
14.652723 18.590067 25.523338
16.298462 15.766032 30.595400
16.539382 19.386612 19.278869
14.549043 18.386327 18.862183
12.091144 13.679743 20.899686
12.343388 14.075478 18.678817
12.111004 18.888761 19.758458
12.345565 17.756745 21.684782
14.799390 13.634204 21.927391
13.693516 13.435266 23.899727
16.006244 13.398740 25.330670
15.002507 12.523442 23.529991
13.254869 20.336723 32.369853
11.748370 19.955296 30.744693
15.719893 18.818325 24.815477
13.666914 19.438847 25.496099
16.796111 16.151905 31.735211
16.846236 14.748367 29.997127
POINT_DATA 576
SCALARS my_scalars float
LOOKUP_TABLE default
1.4
1.4
1.09
1.09
1.09
1.09
1.09
1.09
1.09
1.09
1.09
1.09
1.09
1.09
1.7
1.7
1.7
1.7
1.7
1.7
1.7
1.7
1.7
1.7
1.7
1.7
1.7
1.7
1.7
1.7
1.7
1.7
1.7
1.7
1.7
1.7
1.7
1.7
1.7
1.7
1.7
1.7
1.7
1.7
1.7
1.7
1.55
1.55
1.55
1.55
1.55
1.55
1.55
1.55
1.55
1.55
1.52
1.52
1.52
1.52
1.52
1.52
1.52
1.52
1.52
1.52
1.52
1.52
1.52
1.52
1.52
1.52
1.4
1.4
1.09
1.09
1.09
1.09
1.09
1.09
1.09
1.09
1.09
1.09
1.09
1.09
1.7
1.7
1.7
1.7
1.7
1.7
1.7
1.7
1.7
1.7
1.7
1.7
1.7
1.7
1.7
1.7
1.7
1.7
1.7
1.7
1.7
1.7
1.7
1.7
1.7
1.7
1.7
1.7
1.7
1.7
1.7
1.7
1.55
1.55
1.55
1.55
1.55
1.55
1.55
1.55
1.55
1.55
1.52
1.52
1.52
1.52
1.52
1.52
1.52
1.52
1.52
1.52
1.52
1.52
1.52
1.52
1.52
1.52
1.4
1.4
1.09
1.09
1.09
1.09
1.09
1.09
1.09
1.09
1.09
1.09
1.09
1.09
1.7
1.7
1.7
1.7
1.7
1.7
1.7
1.7
1.7
1.7
1.7
1.7
1.7
1.7
1.7
1.7
1.7
1.7
1.7
1.7
1.7
1.7
1.7
1.7
1.7
1.7
1.7
1.7
1.7
1.7
1.7
1.7
1.55
1.55
1.55
1.55
1.55
1.55
1.55
1.55
1.55
1.55
1.52
1.52
1.52
1.52
1.52
1.52
1.52
1.52
1.52
1.52
1.52
1.52
1.52
1.52
1.52
1.52
1.4
1.4
1.09
1.09
1.09
1.09
1.09
1.09
1.09
1.09
1.09
1.09
1.09
1.09
1.7
1.7
1.7
1.7
1.7
1.7
1.7
1.7
1.7
1.7
1.7
1.7
1.7
1.7
1.7
1.7
1.7
1.7
1.7
1.7
1.7
1.7
1.7
1.7
1.7
1.7
1.7
1.7
1.7
1.7
1.7
1.7
1.55
1.55
1.55
1.55
1.55
1.55
1.55
1.55
1.55
1.55
1.52
1.52
1.52
1.52
1.52
1.52
1.52
1.52
1.52
1.52
1.52
1.52
1.52
1.52
1.52
1.52
1.4
1.4
1.09
1.09
1.09
1.09
1.09
1.09
1.09
1.09
1.09
1.09
1.09
1.09
1.7
1.7
1.7
1.7
1.7
1.7
1.7
1.7
1.7
1.7
1.7
1.7
1.7
1.7
1.7
1.7
1.7
1.7
1.7
1.7
1.7
1.7
1.7
1.7
1.7
1.7
1.7
1.7
1.7
1.7
1.7
1.7
1.55
1.55
1.55
1.55
1.55
1.55
1.55
1.55
1.55
1.55
1.52
1.52
1.52
1.52
1.52
1.52
1.52
1.52
1.52
1.52
1.52
1.52
1.52
1.52
1.52
1.52
1.4
1.4
1.09
1.09
1.09
1.09
1.09
1.09
1.09
1.09
1.09
1.09
1.09
1.09
1.7
1.7
1.7
1.7
1.7
1.7
1.7
1.7
1.7
1.7
1.7
1.7
1.7
1.7
1.7
1.7
1.7
1.7
1.7
1.7
1.7
1.7
1.7
1.7
1.7
1.7
1.7
1.7
1.7
1.7
1.7
1.7
1.55
1.55
1.55
1.55
1.55
1.55
1.55
1.55
1.55
1.55
1.52
1.52
1.52
1.52
1.52
1.52
1.52
1.52
1.52
1.52
1.52
1.52
1.52
1.52
1.52
1.52
1.4
1.4
1.09
1.09
1.09
1.09
1.09
1.09
1.09
1.09
1.09
1.09
1.09
1.09
1.7
1.7
1.7
1.7
1.7
1.7
1.7
1.7
1.7
1.7
1.7
1.7
1.7
1.7
1.7
1.7
1.7
1.7
1.7
1.7
1.7
1.7
1.7
1.7
1.7
1.7
1.7
1.7
1.7
1.7
1.7
1.7
1.55
1.55
1.55
1.55
1.55
1.55
1.55
1.55
1.55
1.55
1.52
1.52
1.52
1.52
1.52
1.52
1.52
1.52
1.52
1.52
1.52
1.52
1.52
1.52
1.52
1.52
1.4
1.4
1.09
1.09
1.09
1.09
1.09
1.09
1.09
1.09
1.09
1.09
1.09
1.09
1.7
1.7
1.7
1.7
1.7
1.7
1.7
1.7
1.7
1.7
1.7
1.7
1.7
1.7
1.7
1.7
1.7
1.7
1.7
1.7
1.7
1.7
1.7
1.7
1.7
1.7
1.7
1.7
1.7
1.7
1.7
1.7
1.55
1.55
1.55
1.55
1.55
1.55
1.55
1.55
1.55
1.55
1.52
1.52
1.52
1.52
1.52
1.52
1.52
1.52
1.52
1.52
1.52
1.52
1.52
1.52
1.52
1.52
VECTORS vectors float
0.4375 0 0
0.4375 0 0
0.25 0 0
0.25 0 0
0.25 0 0
0.25 0 0
0.25 0 0
0.25 0 0
0.25 0 0
0.25 0 0
0.25 0 0
0.25 0 0
0.25 0 0
0.25 0 0
0.3125 0 0
0.3125 0 0
0.3125 0 0
0.3125 0 0
0.3125 0 0
0.3125 0 0
0.3125 0 0
0.3125 0 0
0.3125 0 0
0.3125 0 0
0.3125 0 0
0.3125 0 0
0.3125 0 0
0.3125 0 0
0.3125 0 0
0.3125 0 0
0.3125 0 0
0.3125 0 0
0.3125 0 0
0.3125 0 0
0.3125 0 0
0.3125 0 0
0.3125 0 0
0.3125 0 0
0.3125 0 0
0.3125 0 0
0.3125 0 0
0.3125 0 0
0.3125 0 0
0.3125 0 0
0.3125 0 0
0.3125 0 0
0 0 0
0 0 0
0 0 0
0 0 0
0 0 0
0 0 0
0 0 0
0 0 0
0 0 0
0 0 0
0.03125 0 0
0.03125 0 0
0.03125 0 0
0.03125 0 0
0.03125 0 0
0.03125 0 0
0.03125 0 0
0.03125 0 0
0.03125 0 0
0.03125 0 0
0.03125 0 0
0.03125 0 0
0.03125 0 0
0.03125 0 0
0.03125 0 0
0.03125 0 0
0.4375 0 0
0.4375 0 0
0.25 0 0
0.25 0 0
0.25 0 0
0.25 0 0
0.25 0 0
0.25 0 0
0.25 0 0
0.25 0 0
0.25 0 0
0.25 0 0
0.25 0 0
0.25 0 0
0.3125 0 0
0.3125 0 0
0.3125 0 0
0.3125 0 0
0.3125 0 0
0.3125 0 0
0.3125 0 0
0.3125 0 0
0.3125 0 0
0.3125 0 0
0.3125 0 0
0.3125 0 0
0.3125 0 0
0.3125 0 0
0.3125 0 0
0.3125 0 0
0.3125 0 0
0.3125 0 0
0.3125 0 0
0.3125 0 0
0.3125 0 0
0.3125 0 0
0.3125 0 0
0.3125 0 0
0.3125 0 0
0.3125 0 0
0.3125 0 0
0.3125 0 0
0.3125 0 0
0.3125 0 0
0.3125 0 0
0.3125 0 0
0 0 0
0 0 0
0 0 0
0 0 0
0 0 0
0 0 0
0 0 0
0 0 0
0 0 0
0 0 0
0.03125 0 0
0.03125 0 0
0.03125 0 0
0.03125 0 0
0.03125 0 0
0.03125 0 0
0.03125 0 0
0.03125 0 0
0.03125 0 0
0.03125 0 0
0.03125 0 0
0.03125 0 0
0.03125 0 0
0.03125 0 0
0.03125 0 0
0.03125 0 0
0.4375 0 0
0.4375 0 0
0.25 0 0
0.25 0 0
0.25 0 0
0.25 0 0
0.25 0 0
0.25 0 0
0.25 0 0
0.25 0 0
0.25 0 0
0.25 0 0
0.25 0 0
0.25 0 0
0.3125 0 0
0.3125 0 0
0.3125 0 0
0.3125 0 0
0.3125 0 0
0.3125 0 0
0.3125 0 0
0.3125 0 0
0.3125 0 0
0.3125 0 0
0.3125 0 0
0.3125 0 0
0.3125 0 0
0.3125 0 0
0.3125 0 0
0.3125 0 0
0.3125 0 0
0.3125 0 0
0.3125 0 0
0.3125 0 0
0.3125 0 0
0.3125 0 0
0.3125 0 0
0.3125 0 0
0.3125 0 0
0.3125 0 0
0.3125 0 0
0.3125 0 0
0.3125 0 0
0.3125 0 0
0.3125 0 0
0.3125 0 0
0 0 0
0 0 0
0 0 0
0 0 0
0 0 0
0 0 0
0 0 0
0 0 0
0 0 0
0 0 0
0.03125 0 0
0.03125 0 0
0.03125 0 0
0.03125 0 0
0.03125 0 0
0.03125 0 0
0.03125 0 0
0.03125 0 0
0.03125 0 0
0.03125 0 0
0.03125 0 0
0.03125 0 0
0.03125 0 0
0.03125 0 0
0.03125 0 0
0.03125 0 0
0.4375 0 0
0.4375 0 0
0.25 0 0
0.25 0 0
0.25 0 0
0.25 0 0
0.25 0 0
0.25 0 0
0.25 0 0
0.25 0 0
0.25 0 0
0.25 0 0
0.25 0 0
0.25 0 0
0.3125 0 0
0.3125 0 0
0.3125 0 0
0.3125 0 0
0.3125 0 0
0.3125 0 0
0.3125 0 0
0.3125 0 0
0.3125 0 0
0.3125 0 0
0.3125 0 0
0.3125 0 0
0.3125 0 0
0.3125 0 0
0.3125 0 0
0.3125 0 0
0.3125 0 0
0.3125 0 0
0.3125 0 0
0.3125 0 0
0.3125 0 0
0.3125 0 0
0.3125 0 0
0.3125 0 0
0.3125 0 0
0.3125 0 0
0.3125 0 0
0.3125 0 0
0.3125 0 0
0.3125 0 0
0.3125 0 0
0.3125 0 0
0 0 0
0 0 0
0 0 0
0 0 0
0 0 0
0 0 0
0 0 0
0 0 0
0 0 0
0 0 0
0.03125 0 0
0.03125 0 0
0.03125 0 0
0.03125 0 0
0.03125 0 0
0.03125 0 0
0.03125 0 0
0.03125 0 0
0.03125 0 0
0.03125 0 0
0.03125 0 0
0.03125 0 0
0.03125 0 0
0.03125 0 0
0.03125 0 0
0.03125 0 0
0.4375 0 0
0.4375 0 0
0.25 0 0
0.25 0 0
0.25 0 0
0.25 0 0
0.25 0 0
0.25 0 0
0.25 0 0
0.25 0 0
0.25 0 0
0.25 0 0
0.25 0 0
0.25 0 0
0.3125 0 0
0.3125 0 0
0.3125 0 0
0.3125 0 0
0.3125 0 0
0.3125 0 0
0.3125 0 0
0.3125 0 0
0.3125 0 0
0.3125 0 0
0.3125 0 0
0.3125 0 0
0.3125 0 0
0.3125 0 0
0.3125 0 0
0.3125 0 0
0.3125 0 0
0.3125 0 0
0.3125 0 0
0.3125 0 0
0.3125 0 0
0.3125 0 0
0.3125 0 0
0.3125 0 0
0.3125 0 0
0.3125 0 0
0.3125 0 0
0.3125 0 0
0.3125 0 0
0.3125 0 0
0.3125 0 0
0.3125 0 0
0 0 0
0 0 0
0 0 0
0 0 0
0 0 0
0 0 0
0 0 0
0 0 0
0 0 0
0 0 0
0.03125 0 0
0.03125 0 0
0.03125 0 0
0.03125 0 0
0.03125 0 0
0.03125 0 0
0.03125 0 0
0.03125 0 0
0.03125 0 0
0.03125 0 0
0.03125 0 0
0.03125 0 0
0.03125 0 0
0.03125 0 0
0.03125 0 0
0.03125 0 0
0.4375 0 0
0.4375 0 0
0.25 0 0
0.25 0 0
0.25 0 0
0.25 0 0
0.25 0 0
0.25 0 0
0.25 0 0
0.25 0 0
0.25 0 0
0.25 0 0
0.25 0 0
0.25 0 0
0.3125 0 0
0.3125 0 0
0.3125 0 0
0.3125 0 0
0.3125 0 0
0.3125 0 0
0.3125 0 0
0.3125 0 0
0.3125 0 0
0.3125 0 0
0.3125 0 0
0.3125 0 0
0.3125 0 0
0.3125 0 0
0.3125 0 0
0.3125 0 0
0.3125 0 0
0.3125 0 0
0.3125 0 0
0.3125 0 0
0.3125 0 0
0.3125 0 0
0.3125 0 0
0.3125 0 0
0.3125 0 0
0.3125 0 0
0.3125 0 0
0.3125 0 0
0.3125 0 0
0.3125 0 0
0.3125 0 0
0.3125 0 0
0 0 0
0 0 0
0 0 0
0 0 0
0 0 0
0 0 0
0 0 0
0 0 0
0 0 0
0 0 0
0.03125 0 0
0.03125 0 0
0.03125 0 0
0.03125 0 0
0.03125 0 0
0.03125 0 0
0.03125 0 0
0.03125 0 0
0.03125 0 0
0.03125 0 0
0.03125 0 0
0.03125 0 0
0.03125 0 0
0.03125 0 0
0.03125 0 0
0.03125 0 0
0.4375 0 0
0.4375 0 0
0.25 0 0
0.25 0 0
0.25 0 0
0.25 0 0
0.25 0 0
0.25 0 0
0.25 0 0
0.25 0 0
0.25 0 0
0.25 0 0
0.25 0 0
0.25 0 0
0.3125 0 0
0.3125 0 0
0.3125 0 0
0.3125 0 0
0.3125 0 0
0.3125 0 0
0.3125 0 0
0.3125 0 0
0.3125 0 0
0.3125 0 0
0.3125 0 0
0.3125 0 0
0.3125 0 0
0.3125 0 0
0.3125 0 0
0.3125 0 0
0.3125 0 0
0.3125 0 0
0.3125 0 0
0.3125 0 0
0.3125 0 0
0.3125 0 0
0.3125 0 0
0.3125 0 0
0.3125 0 0
0.3125 0 0
0.3125 0 0
0.3125 0 0
0.3125 0 0
0.3125 0 0
0.3125 0 0
0.3125 0 0
0 0 0
0 0 0
0 0 0
0 0 0
0 0 0
0 0 0
0 0 0
0 0 0
0 0 0
0 0 0
0.03125 0 0
0.03125 0 0
0.03125 0 0
0.03125 0 0
0.03125 0 0
0.03125 0 0
0.03125 0 0
0.03125 0 0
0.03125 0 0
0.03125 0 0
0.03125 0 0
0.03125 0 0
0.03125 0 0
0.03125 0 0
0.03125 0 0
0.03125 0 0
0.4375 0 0
0.4375 0 0
0.25 0 0
0.25 0 0
0.25 0 0
0.25 0 0
0.25 0 0
0.25 0 0
0.25 0 0
0.25 0 0
0.25 0 0
0.25 0 0
0.25 0 0
0.25 0 0
0.3125 0 0
0.3125 0 0
0.3125 0 0
0.3125 0 0
0.3125 0 0
0.3125 0 0
0.3125 0 0
0.3125 0 0
0.3125 0 0
0.3125 0 0
0.3125 0 0
0.3125 0 0
0.3125 0 0
0.3125 0 0
0.3125 0 0
0.3125 0 0
0.3125 0 0
0.3125 0 0
0.3125 0 0
0.3125 0 0
0.3125 0 0
0.3125 0 0
0.3125 0 0
0.3125 0 0
0.3125 0 0
0.3125 0 0
0.3125 0 0
0.3125 0 0
0.3125 0 0
0.3125 0 0
0.3125 0 0
0.3125 0 0
0 0 0
0 0 0
0 0 0
0 0 0
0 0 0
0 0 0
0 0 0
0 0 0
0 0 0
0 0 0
0.03125 0 0
0.03125 0 0
0.03125 0 0
0.03125 0 0
0.03125 0 0
0.03125 0 0
0.03125 0 0
0.03125 0 0
0.03125 0 0
0.03125 0 0
0.03125 0 0
0.03125 0 0
0.03125 0 0
0.03125 0 0
0.03125 0 0
0.03125 0 0
