# vtk DataFile Version 1.0
Cube
ASCII

DATASET POLYDATA
POINTS 672 float
5.249993 10.137584 5.479537
2.324282 10.796058 5.151110
3.825285 9.684476 12.322425
2.626015 12.454174 11.672214
12.092699 4.904129 2.312810
12.612637 5.708762 4.614981
1.270901 4.933054 5.750822
6.036715 4.150038 7.001946
8.217318 3.020910 7.191725
8.992046 1.486177 5.376462
7.549559 1.024924 3.447837
5.364869 2.144361 3.237990
2.266091 2.569901 2.284718
0.226271 3.373302 1.155376
12.039031 8.974026 4.075353
8.993913 11.905665 6.661200
10.791279 6.858816 4.501938
9.929712 5.003759 3.132128
8.071761 5.382998 1.536339
7.096280 7.646779 1.288782
7.978773 9.526825 2.591741
10.185013 13.990631 6.576665
10.568017 1.847175 8.169850
12.451326 1.312586 9.687783
0.548789 12.895992 9.610013
-0.338614 11.156421 8.126542
3.722670 10.637919 7.740208
3.860034 10.303601 2.905475
3.711150 10.573967 9.141073
3.874834 10.314068 1.504306
2.925578 11.598380 12.266985
3.501083 10.534816 11.727682
3.653181 10.517828 10.325479
3.956554 10.326803 0.320926
3.090379 1.770976 5.103050
5.540846 3.222787 5.111456
6.359360 3.473147 6.220368
7.595909 2.833131 6.328383
8.027268 1.961234 5.321397
7.216507 1.707366 4.218891
5.980280 2.339549 4.108069
1.908491 3.700274 4.096869
1.608767 3.262171 2.797299
0.454076 3.706759 2.157947
12.986864 4.577108 2.816731
-0.115292 5.027814 4.108253
1.047009 4.591874 4.748963
3.889773 7.902938 4.939756
3.714152 13.074372 5.713234
3.139206 0.618449 5.402577
4.061078 6.498276 4.979242
3.101545 3.158376 4.767808
4.221645 3.878849 4.972718
4.164524 5.307714 4.973695
9.971695 9.459893 4.504954
11.065434 11.423436 6.237251
9.099835 10.323398 5.219384
11.940769 10.595826 5.481267
9.662514 11.281016 6.080127
11.375625 9.620378 4.638171
7.631377 10.220218 5.128372
0.013579 10.730422 5.542730
9.452152 8.344351 3.661484
9.997075 7.052517 3.791612
9.504170 5.992820 3.023775
8.458099 6.206093 2.123604
7.910960 7.482143 1.981494
8.411746 8.548137 2.733755
11.575282 12.444463 7.199004
10.990134 13.724719 7.250369
11.017256 0.862904 8.147388
12.523678 14.387357 9.002330
-0.287348 13.122016 8.964118
12.622273 12.145490 8.092839
1.178084 10.836899 5.607102
6.467900 10.135217 5.044300
4.827380 10.371874 7.132488
2.606420 10.861288 7.126307
4.976646 10.090745 3.518352
2.755686 10.580158 3.512170
4.979241 8.661924 5.033160
2.620459 12.320234 5.645911
2.648726 8.335904 4.758460
4.950974 12.646254 5.920611
4.042035 11.442314 18.822337
1.116324 12.100788 18.493910
2.617326 10.989206 25.665225
1.418057 13.758903 25.015014
10.884741 6.208859 15.655610
11.404678 7.013492 17.957781
0.062942 6.237784 19.093622
4.828757 5.454768 20.344746
7.009360 4.325640 20.534525
7.784087 2.790907 18.719261
6.341601 2.329654 16.790637
4.156911 3.449091 16.580790
1.058132 3.874631 15.627518
-0.981688 4.678032 14.498176
10.831072 10.278756 17.418153
7.785954 13.210395 20.004000
9.583321 8.163546 17.844737
8.721753 6.308489 16.474927
6.863802 6.687728 14.879139
5.888322 8.951509 14.631582
6.770814 10.831554 15.934541
8.977054 15.295361 19.919465
9.360059 3.151904 21.512650
11.243367 2.617316 23.030583
-0.659170 14.200722 22.952813
-1.546572 12.461151 21.469341
2.514711 11.942649 21.083008
2.652075 11.608330 16.248275
2.503192 11.878697 22.483873
2.666875 11.618798 14.847106
1.717620 12.903110 25.609784
2.293124 11.839545 25.070482
2.445223 11.822558 23.668279
2.748596 11.631533 13.663726
1.882421 3.075706 18.445850
4.332888 4.527516 18.454256
5.151402 4.777877 19.563168
6.387950 4.137861 19.671183
6.819310 3.265964 18.664197
6.008548 3.012096 17.561691
4.772322 3.644279 17.450869
0.700532 5.005004 17.439669
0.400809 4.566901 16.140099
-0.753882 5.011489 15.500747
11.778905 5.881838 16.159531
-1.323250 6.332544 17.451053
-0.160950 5.896604 18.091763
2.681814 9.207668 18.282556
2.506193 14.379101 19.056034
1.931247 1.923178 18.745377
2.853120 7.803006 18.322042
1.893586 4.463105 18.110607
3.013686 5.183578 18.315517
2.956566 6.612444 18.316495
8.763737 10.764623 17.847754
9.857476 12.728166 19.580050
7.891877 11.628128 18.562183
10.732811 11.900556 18.824067
8.454556 12.585745 19.422926
10.167667 10.925108 17.980971
6.423419 11.524948 18.471172
-1.194379 12.035152 18.885530
8.244194 9.649081 17.004284
8.789116 8.357247 17.134412
8.296212 7.297550 16.366574
7.250141 7.510822 15.466404
6.703002 8.786872 15.324294
7.203788 9.852867 16.076555
10.367323 13.749193 20.541804
9.782176 15.029449 20.593169
9.809297 2.167634 21.490188
11.315720 15.692087 22.345130
-1.495306 14.426746 22.306918
11.414315 13.450220 21.435639
-0.029875 12.141629 18.949902
5.259941 11.439947 18.387099
3.619421 11.676604 20.475287
1.398461 12.166018 20.469106
3.768688 11.395475 16.861151
1.547728 11.884888 16.854970
3.771283 9.966654 18.375960
1.412500 13.624964 18.988711
1.440768 9.640633 18.101260
3.743015 13.950984 19.263411
5.695152 23.962449 5.479537
2.769441 24.620923 5.151110
4.270443 23.509341 12.322425
3.071174 26.279038 11.672214
12.537858 18.728994 2.312810
13.057796 19.533627 4.614981
1.716060 18.757919 5.750822
6.481874 17.974903 7.001946
8.662477 16.845775 7.191725
9.437205 15.311042 5.376462
7.994718 14.849789 3.447837
5.810028 15.969226 3.237990
2.711250 16.394766 2.284718
0.671430 17.198167 1.155376
12.484190 22.798891 4.075353
9.439072 25.730530 6.661200
11.236438 20.683681 4.501938
10.374871 18.828624 3.132128
8.516919 19.207863 1.536339
7.541439 21.471644 1.288782
8.423932 23.351689 2.591741
10.630172 27.815496 6.576665
11.013176 15.672039 8.169850
12.896485 15.137450 9.687783
0.993947 26.720857 9.610013
0.106545 24.981286 8.126542
4.167829 24.462784 7.740208
4.305193 24.128465 2.905475
4.156309 24.398832 9.141073
4.319993 24.138933 1.504306
3.370737 25.423245 12.266985
3.946242 24.359680 11.727682
4.098340 24.342693 10.325479
4.401713 24.151668 0.320926
3.535538 15.595841 5.103050
5.986005 17.047651 5.111456
6.804519 17.298012 6.220368
8.041068 16.657996 6.328383
8.472427 15.786099 5.321397
7.661666 15.532231 4.218891
6.425439 16.164414 4.108069
2.353650 17.525139 4.096869
2.053926 17.087036 2.797299
0.899235 17.531624 2.157947
13.432023 18.401973 2.816731
0.329867 18.852679 4.108253
1.492168 18.416739 4.748963
4.334932 21.727803 4.939756
4.159311 26.899236 5.713234
3.584365 14.443313 5.402577
4.506237 20.323141 4.979242
3.546704 16.983240 4.767808
4.666804 17.703713 4.972718
4.609683 19.132579 4.973695
10.416854 23.284758 4.504954
11.510593 25.248301 6.237251
9.544994 24.148263 5.219384
12.385928 24.420691 5.481267
10.107673 25.105880 6.080127
11.820784 23.445243 4.638171
8.076536 24.045083 5.128372
0.458738 24.555287 5.542730
9.897311 22.169216 3.661484
10.442234 20.877382 3.791612
9.949329 19.817685 3.023775
8.903258 20.030957 2.123604
8.356119 21.307007 1.981494
8.856905 22.373002 2.733755
12.020441 26.269328 7.199004
11.435293 27.549584 7.250369
11.462415 14.687768 8.147388
12.968837 28.212222 9.002330
0.157811 26.946881 8.964118
13.067432 25.970355 8.092839
1.623242 24.661764 5.607102
6.913059 23.960082 5.044300
5.272539 24.196739 7.132488
3.051579 24.686153 7.126307
5.421805 23.915610 3.518352
3.200845 24.405023 3.512170
5.424400 22.486789 5.033160
3.065618 26.145099 5.645911
3.093885 22.160768 4.758460
5.396133 26.471119 5.920611
4.487194 25.267179 18.822337
1.561483 25.925653 18.493910
3.062485 24.814071 25.665225
1.863216 27.583768 25.015014
11.329900 20.033724 15.655610
11.849837 20.838357 17.957781
0.508101 20.062649 19.093622
5.273916 19.279632 20.344746
7.454519 18.150504 20.534525
8.229246 16.615772 18.719261
6.786760 16.154518 16.790637
4.602070 17.273956 16.580790
1.503291 17.699496 15.627518
-0.536529 18.502896 14.498176
11.276231 24.103621 17.418153
8.231113 27.035260 20.004000
10.028480 21.988411 17.844737
9.166912 20.133354 16.474927
7.308961 20.512592 14.879139
6.333481 22.776374 14.631582
7.215973 24.656419 15.934541
9.422213 29.120225 19.919465
9.805218 16.976769 21.512650
11.688526 16.442180 23.030583
-0.214011 28.025587 22.952813
-1.101413 26.286016 21.469341
2.959870 25.767513 21.083008
3.097234 25.433195 16.248275
2.948351 25.703562 22.483873
3.112034 25.443662 14.847106
2.162779 26.727975 25.609784
2.738283 25.664410 25.070482
2.890382 25.647422 23.668279
3.193755 25.456398 13.663726
2.327580 16.900571 18.445850
4.778047 18.352381 18.454256
5.596561 18.602742 19.563168
6.833109 17.962726 19.671183
7.264469 17.090829 18.664197
6.453707 16.836961 17.561691
5.217481 17.469143 17.450869
1.145691 18.829869 17.439669
0.845968 18.391766 16.140099
-0.308723 18.836354 15.500747
12.224064 19.706702 16.159531
-0.878091 20.157409 17.451053
0.284209 19.721469 18.091763
3.126973 23.032533 18.282556
2.951352 28.203966 19.056034
2.376406 15.748043 18.745377
3.298278 21.627871 18.322042
2.338745 18.287970 18.110607
3.458845 19.008443 18.315517
3.401725 20.437309 18.316495
9.208896 24.589488 17.847754
10.302635 26.553031 19.580050
8.337036 25.452993 18.562183
11.177970 25.725421 18.824067
8.899715 26.410610 19.422926
10.612826 24.749972 17.980971
6.868578 25.349813 18.471172
-0.749220 25.860016 18.885530
8.689353 23.473946 17.004284
9.234275 22.182112 17.134412
8.741371 21.122415 16.366574
7.695300 21.335687 15.466404
7.148161 22.611737 15.324294
7.648947 23.677732 16.076555
10.812482 27.574058 20.541804
10.227335 28.854314 20.593169
10.254456 15.992498 21.490188
11.760879 29.516951 22.345130
-1.050147 28.251611 22.306918
11.859474 27.275085 21.435639
0.415284 25.966494 18.949902
5.705100 25.264812 18.387099
4.064580 25.501469 20.475287
1.843620 25.990883 20.469106
4.213847 25.220339 16.861151
1.992887 25.709753 16.854970
4.216441 23.791518 18.375960
1.857659 27.449828 18.988711
1.885927 23.465498 18.101260
4.188174 27.775849 19.263411
18.648353 10.137584 5.479537
15.722642 10.796058 5.151110
17.223645 9.684476 12.322425
16.024375 12.454174 11.672214
25.491059 4.904129 2.312810
26.010997 5.708762 4.614981
14.669261 4.933054 5.750822
19.435075 4.150038 7.001946
21.615678 3.020910 7.191725
22.390406 1.486177 5.376462
20.947919 1.024924 3.447837
18.763229 2.144361 3.237990
15.664451 2.569901 2.284718
13.624631 3.373302 1.155376
25.437391 8.974026 4.075353
22.392273 11.905665 6.661200
24.189639 6.858816 4.501938
23.328072 5.003759 3.132128
21.470121 5.382998 1.536339
20.494640 7.646779 1.288782
21.377133 9.526825 2.591741
23.583373 13.990631 6.576665
23.966377 1.847175 8.169850
25.849686 1.312586 9.687783
13.947149 12.895992 9.610013
13.059746 11.156421 8.126542
17.121030 10.637919 7.740208
17.258394 10.303601 2.905475
17.109510 10.573967 9.141073
17.273194 10.314068 1.504306
16.323938 11.598380 12.266985
16.899443 10.534816 11.727682
17.051541 10.517828 10.325479
17.354914 10.326803 0.320926
16.488739 1.770976 5.103050
18.939206 3.222787 5.111456
19.757720 3.473147 6.220368
20.994269 2.833131 6.328383
21.425628 1.961234 5.321397
20.614867 1.707366 4.218891
19.378640 2.339549 4.108069
15.306851 3.700274 4.096869
15.007127 3.262171 2.797299
13.852436 3.706759 2.157947
26.385224 4.577108 2.816731
13.283068 5.027814 4.108253
14.445369 4.591874 4.748963
17.288133 7.902938 4.939756
17.112512 13.074372 5.713234
16.537566 0.618449 5.402577
17.459438 6.498276 4.979242
16.499905 3.158376 4.767808
17.620005 3.878849 4.972718
17.562884 5.307714 4.973695
23.370055 9.459893 4.504954
24.463794 11.423436 6.237251
22.498195 10.323398 5.219384
25.339129 10.595826 5.481267
23.060874 11.281016 6.080127
24.773985 9.620378 4.638171
21.029737 10.220218 5.128372
13.411939 10.730422 5.542730
22.850512 8.344351 3.661484
23.395435 7.052517 3.791612
22.902530 5.992820 3.023775
21.856459 6.206093 2.123604
21.309320 7.482143 1.981494
21.810106 8.548137 2.733755
24.973642 12.444463 7.199004
24.388494 13.724719 7.250369
24.415616 0.862904 8.147388
25.922038 14.387357 9.002330
13.111012 13.122016 8.964118
26.020633 12.145490 8.092839
14.576444 10.836899 5.607102
19.866260 10.135217 5.044300
18.225740 10.371874 7.132488
16.004780 10.861288 7.126307
18.375006 10.090745 3.518352
16.154046 10.580158 3.512170
18.377601 8.661924 5.033160
16.018819 12.320234 5.645911
16.047086 8.335904 4.758460
18.349334 12.646254 5.920611
17.440395 11.442314 18.822337
14.514684 12.100788 18.493910
16.015686 10.989206 25.665225
14.816417 13.758903 25.015014
24.283101 6.208859 15.655610
24.803038 7.013492 17.957781
13.461302 6.237784 19.093622
18.227117 5.454768 20.344746
20.407720 4.325640 20.534525
21.182447 2.790907 18.719261
19.739961 2.329654 16.790637
17.555271 3.449091 16.580790
14.456492 3.874631 15.627518
12.416672 4.678032 14.498176
24.229432 10.278756 17.418153
21.184314 13.210395 20.004000
22.981681 8.163546 17.844737
22.120113 6.308489 16.474927
20.262162 6.687728 14.879139
19.286682 8.951509 14.631582
20.169174 10.831554 15.934541
22.375414 15.295361 19.919465
22.758419 3.151904 21.512650
24.641727 2.617316 23.030583
12.739190 14.200722 22.952813
11.851788 12.461151 21.469341
15.913071 11.942649 21.083008
16.050435 11.608330 16.248275
15.901552 11.878697 22.483873
16.065235 11.618798 14.847106
15.115980 12.903110 25.609784
15.691484 11.839545 25.070482
15.843583 11.822558 23.668279
16.146956 11.631533 13.663726
15.280781 3.075706 18.445850
17.731248 4.527516 18.454256
18.549762 4.777877 19.563168
19.786310 4.137861 19.671183
20.217670 3.265964 18.664197
19.406908 3.012096 17.561691
18.170682 3.644279 17.450869
14.098892 5.005004 17.439669
13.799169 4.566901 16.140099
12.644478 5.011489 15.500747
25.177265 5.881838 16.159531
12.075110 6.332544 17.451053
13.237410 5.896604 18.091763
16.080174 9.207668 18.282556
15.904553 14.379101 19.056034
15.329607 1.923178 18.745377
16.251480 7.803006 18.322042
15.291946 4.463105 18.110607
16.412046 5.183578 18.315517
16.354926 6.612444 18.316495
22.162097 10.764623 17.847754
23.255836 12.728166 19.580050
21.290237 11.628128 18.562183
24.131171 11.900556 18.824067
21.852916 12.585745 19.422926
23.566027 10.925108 17.980971
19.821779 11.524948 18.471172
12.203981 12.035152 18.885530
21.642554 9.649081 17.004284
22.187476 8.357247 17.134412
21.694572 7.297550 16.366574
20.648501 7.510822 15.466404
20.101362 8.786872 15.324294
20.602148 9.852867 16.076555
23.765683 13.749193 20.541804
23.180536 15.029449 20.593169
23.207657 2.167634 21.490188
24.714080 15.692087 22.345130
11.903054 14.426746 22.306918
24.812675 13.450220 21.435639
13.368485 12.141629 18.949902
18.658301 11.439947 18.387099
17.017781 11.676604 20.475287
14.796821 12.166018 20.469106
17.167048 11.395475 16.861151
14.946088 11.884888 16.854970
17.169643 9.966654 18.375960
14.810860 13.624964 18.988711
14.839128 9.640633 18.101260
17.141375 13.950984 19.263411
19.093512 23.962449 5.479537
16.167801 24.620923 5.151110
17.668803 23.509341 12.322425
16.469534 26.279038 11.672214
25.936218 18.728994 2.312810
26.456156 19.533627 4.614981
15.114420 18.757919 5.750822
19.880234 17.974903 7.001946
22.060837 16.845775 7.191725
22.835565 15.311042 5.376462
21.393078 14.849789 3.447837
19.208388 15.969226 3.237990
16.109610 16.394766 2.284718
14.069790 17.198167 1.155376
25.882550 22.798891 4.075353
22.837432 25.730530 6.661200
24.634798 20.683681 4.501938
23.773231 18.828624 3.132128
21.915279 19.207863 1.536339
20.939799 21.471644 1.288782
21.822292 23.351689 2.591741
24.028532 27.815496 6.576665
24.411536 15.672039 8.169850
26.294845 15.137450 9.687783
14.392307 26.720857 9.610013
13.504905 24.981286 8.126542
17.566189 24.462784 7.740208
17.703553 24.128465 2.905475
17.554669 24.398832 9.141073
17.718353 24.138933 1.504306
16.769097 25.423245 12.266985
17.344602 24.359680 11.727682
17.496700 24.342693 10.325479
17.800073 24.151668 0.320926
16.933898 15.595841 5.103050
19.384365 17.047651 5.111456
20.202879 17.298012 6.220368
21.439428 16.657996 6.328383
21.870787 15.786099 5.321397
21.060026 15.532231 4.218891
19.823799 16.164414 4.108069
15.752010 17.525139 4.096869
15.452286 17.087036 2.797299
14.297595 17.531624 2.157947
26.830383 18.401973 2.816731
13.728227 18.852679 4.108253
14.890528 18.416739 4.748963
17.733292 21.727803 4.939756
17.557671 26.899236 5.713234
16.982725 14.443313 5.402577
17.904597 20.323141 4.979242
16.945064 16.983240 4.767808
18.065164 17.703713 4.972718
18.008043 19.132579 4.973695
23.815214 23.284758 4.504954
24.908953 25.248301 6.237251
22.943354 24.148263 5.219384
25.784288 24.420691 5.481267
23.506033 25.105880 6.080127
25.219144 23.445243 4.638171
21.474896 24.045083 5.128372
13.857098 24.555287 5.542730
23.295671 22.169216 3.661484
23.840594 20.877382 3.791612
23.347689 19.817685 3.023775
22.301618 20.030957 2.123604
21.754479 21.307007 1.981494
22.255265 22.373002 2.733755
25.418801 26.269328 7.199004
24.833653 27.549584 7.250369
24.860775 14.687768 8.147388
26.367197 28.212222 9.002330
13.556171 26.946881 8.964118
26.465792 25.970355 8.092839
15.021602 24.661764 5.607102
20.311419 23.960082 5.044300
18.670899 24.196739 7.132488
16.449939 24.686153 7.126307
18.820165 23.915610 3.518352
16.599205 24.405023 3.512170
18.822760 22.486789 5.033160
16.463978 26.145099 5.645911
16.492245 22.160768 4.758460
18.794493 26.471119 5.920611
17.885554 25.267179 18.822337
14.959843 25.925653 18.493910
16.460845 24.814071 25.665225
15.261576 27.583768 25.015014
24.728260 20.033724 15.655610
25.248197 20.838357 17.957781
13.906461 20.062649 19.093622
18.672276 19.279632 20.344746
20.852879 18.150504 20.534525
21.627606 16.615772 18.719261
20.185120 16.154518 16.790637
18.000430 17.273956 16.580790
14.901651 17.699496 15.627518
12.861831 18.502896 14.498176
24.674591 24.103621 17.418153
21.629473 27.035260 20.004000
23.426840 21.988411 17.844737
22.565272 20.133354 16.474927
20.707321 20.512592 14.879139
19.731841 22.776374 14.631582
20.614333 24.656419 15.934541
22.820573 29.120225 19.919465
23.203578 16.976769 21.512650
25.086886 16.442180 23.030583
13.184349 28.025587 22.952813
12.296947 26.286016 21.469341
16.358230 25.767513 21.083008
16.495594 25.433195 16.248275
16.346711 25.703562 22.483873
16.510394 25.443662 14.847106
15.561139 26.727975 25.609784
16.136643 25.664410 25.070482
16.288742 25.647422 23.668279
16.592115 25.456398 13.663726
15.725940 16.900571 18.445850
18.176407 18.352381 18.454256
18.994921 18.602742 19.563168
20.231469 17.962726 19.671183
20.662829 17.090829 18.664197
19.852067 16.836961 17.561691
18.615841 17.469143 17.450869
14.544051 18.829869 17.439669
14.244328 18.391766 16.140099
13.089637 18.836354 15.500747
25.622424 19.706702 16.159531
12.520269 20.157409 17.451053
13.682569 19.721469 18.091763
16.525333 23.032533 18.282556
16.349712 28.203966 19.056034
15.774766 15.748043 18.745377
16.696638 21.627871 18.322042
15.737105 18.287970 18.110607
16.857205 19.008443 18.315517
16.800085 20.437309 18.316495
22.607256 24.589488 17.847754
23.700995 26.553031 19.580050
21.735396 25.452993 18.562183
24.576330 25.725421 18.824067
22.298075 26.410610 19.422926
24.011186 24.749972 17.980971
20.266938 25.349813 18.471172
12.649140 25.860016 18.885530
22.087713 23.473946 17.004284
22.632635 22.182112 17.134412
22.139731 21.122415 16.366574
21.093660 21.335687 15.466404
20.546521 22.611737 15.324294
21.047307 23.677732 16.076555
24.210842 27.574058 20.541804
23.625695 28.854314 20.593169
23.652816 15.992498 21.490188
25.159239 29.516951 22.345130
12.348213 28.251611 22.306918
25.257834 27.275085 21.435639
13.813644 25.966494 18.949902
19.103460 25.264812 18.387099
17.462940 25.501469 20.475287
15.241980 25.990883 20.469106
17.612207 25.220339 16.861151
15.391247 25.709753 16.854970
17.614801 23.791518 18.375960
15.256019 27.449828 18.988711
15.284287 23.465498 18.101260
17.586534 27.775849 19.263411
POINT_DATA 672
SCALARS my_scalars float
LOOKUP_TABLE default
1.39
1.39
1.09
1.09
1.09
1.09
1.09
1.09
1.09
1.09
1.09
1.09
1.09
1.09
1.09
1.09
1.09
1.09
1.09
1.09
1.09
1.09
1.09
1.09
1.09
1.09
1.7
1.7
1.7
1.7
1.7
1.7
1.7
1.7
1.7
1.7
1.7
1.7
1.7
1.7
1.7
1.7
1.7
1.7
1.7
1.7
1.7
1.7
1.7
1.7
1.7
1.7
1.7
1.7
1.7
1.7
1.7
1.7
1.7
1.7
1.7
1.7
1.7
1.7
1.7
1.7
1.7
1.7
1.7
1.7
1.7
1.7
1.7
1.7
1.55
1.55
1.52
1.52
1.52
1.52
1.52
1.52
1.52
1.52
1.39
1.39
1.09
1.09
1.09
1.09
1.09
1.09
1.09
1.09
1.09
1.09
1.09
1.09
1.09
1.09
1.09
1.09
1.09
1.09
1.09
1.09
1.09
1.09
1.09
1.09
1.7
1.7
1.7
1.7
1.7
1.7
1.7
1.7
1.7
1.7
1.7
1.7
1.7
1.7
1.7
1.7
1.7
1.7
1.7
1.7
1.7
1.7
1.7
1.7
1.7
1.7
1.7
1.7
1.7
1.7
1.7
1.7
1.7
1.7
1.7
1.7
1.7
1.7
1.7
1.7
1.7
1.7
1.7
1.7
1.7
1.7
1.7
1.7
1.55
1.55
1.52
1.52
1.52
1.52
1.52
1.52
1.52
1.52
1.39
1.39
1.09
1.09
1.09
1.09
1.09
1.09
1.09
1.09
1.09
1.09
1.09
1.09
1.09
1.09
1.09
1.09
1.09
1.09
1.09
1.09
1.09
1.09
1.09
1.09
1.7
1.7
1.7
1.7
1.7
1.7
1.7
1.7
1.7
1.7
1.7
1.7
1.7
1.7
1.7
1.7
1.7
1.7
1.7
1.7
1.7
1.7
1.7
1.7
1.7
1.7
1.7
1.7
1.7
1.7
1.7
1.7
1.7
1.7
1.7
1.7
1.7
1.7
1.7
1.7
1.7
1.7
1.7
1.7
1.7
1.7
1.7
1.7
1.55
1.55
1.52
1.52
1.52
1.52
1.52
1.52
1.52
1.52
1.39
1.39
1.09
1.09
1.09
1.09
1.09
1.09
1.09
1.09
1.09
1.09
1.09
1.09
1.09
1.09
1.09
1.09
1.09
1.09
1.09
1.09
1.09
1.09
1.09
1.09
1.7
1.7
1.7
1.7
1.7
1.7
1.7
1.7
1.7
1.7
1.7
1.7
1.7
1.7
1.7
1.7
1.7
1.7
1.7
1.7
1.7
1.7
1.7
1.7
1.7
1.7
1.7
1.7
1.7
1.7
1.7
1.7
1.7
1.7
1.7
1.7
1.7
1.7
1.7
1.7
1.7
1.7
1.7
1.7
1.7
1.7
1.7
1.7
1.55
1.55
1.52
1.52
1.52
1.52
1.52
1.52
1.52
1.52
1.39
1.39
1.09
1.09
1.09
1.09
1.09
1.09
1.09
1.09
1.09
1.09
1.09
1.09
1.09
1.09
1.09
1.09
1.09
1.09
1.09
1.09
1.09
1.09
1.09
1.09
1.7
1.7
1.7
1.7
1.7
1.7
1.7
1.7
1.7
1.7
1.7
1.7
1.7
1.7
1.7
1.7
1.7
1.7
1.7
1.7
1.7
1.7
1.7
1.7
1.7
1.7
1.7
1.7
1.7
1.7
1.7
1.7
1.7
1.7
1.7
1.7
1.7
1.7
1.7
1.7
1.7
1.7
1.7
1.7
1.7
1.7
1.7
1.7
1.55
1.55
1.52
1.52
1.52
1.52
1.52
1.52
1.52
1.52
1.39
1.39
1.09
1.09
1.09
1.09
1.09
1.09
1.09
1.09
1.09
1.09
1.09
1.09
1.09
1.09
1.09
1.09
1.09
1.09
1.09
1.09
1.09
1.09
1.09
1.09
1.7
1.7
1.7
1.7
1.7
1.7
1.7
1.7
1.7
1.7
1.7
1.7
1.7
1.7
1.7
1.7
1.7
1.7
1.7
1.7
1.7
1.7
1.7
1.7
1.7
1.7
1.7
1.7
1.7
1.7
1.7
1.7
1.7
1.7
1.7
1.7
1.7
1.7
1.7
1.7
1.7
1.7
1.7
1.7
1.7
1.7
1.7
1.7
1.55
1.55
1.52
1.52
1.52
1.52
1.52
1.52
1.52
1.52
1.39
1.39
1.09
1.09
1.09
1.09
1.09
1.09
1.09
1.09
1.09
1.09
1.09
1.09
1.09
1.09
1.09
1.09
1.09
1.09
1.09
1.09
1.09
1.09
1.09
1.09
1.7
1.7
1.7
1.7
1.7
1.7
1.7
1.7
1.7
1.7
1.7
1.7
1.7
1.7
1.7
1.7
1.7
1.7
1.7
1.7
1.7
1.7
1.7
1.7
1.7
1.7
1.7
1.7
1.7
1.7
1.7
1.7
1.7
1.7
1.7
1.7
1.7
1.7
1.7
1.7
1.7
1.7
1.7
1.7
1.7
1.7
1.7
1.7
1.55
1.55
1.52
1.52
1.52
1.52
1.52
1.52
1.52
1.52
1.39
1.39
1.09
1.09
1.09
1.09
1.09
1.09
1.09
1.09
1.09
1.09
1.09
1.09
1.09
1.09
1.09
1.09
1.09
1.09
1.09
1.09
1.09
1.09
1.09
1.09
1.7
1.7
1.7
1.7
1.7
1.7
1.7
1.7
1.7
1.7
1.7
1.7
1.7
1.7
1.7
1.7
1.7
1.7
1.7
1.7
1.7
1.7
1.7
1.7
1.7
1.7
1.7
1.7
1.7
1.7
1.7
1.7
1.7
1.7
1.7
1.7
1.7
1.7
1.7
1.7
1.7
1.7
1.7
1.7
1.7
1.7
1.7
1.7
1.55
1.55
1.52
1.52
1.52
1.52
1.52
1.52
1.52
1.52
VECTORS vectors float
0.4375 0 0
0.4375 0 0
0.25 0 0
0.25 0 0
0.25 0 0
0.25 0 0
0.25 0 0
0.25 0 0
0.25 0 0
0.25 0 0
0.25 0 0
0.25 0 0
0.25 0 0
0.25 0 0
0.25 0 0
0.25 0 0
0.25 0 0
0.25 0 0
0.25 0 0
0.25 0 0
0.25 0 0
0.25 0 0
0.25 0 0
0.25 0 0
0.25 0 0
0.25 0 0
0.3125 0 0
0.3125 0 0
0.3125 0 0
0.3125 0 0
0.3125 0 0
0.3125 0 0
0.3125 0 0
0.3125 0 0
0.3125 0 0
0.3125 0 0
0.3125 0 0
0.3125 0 0
0.3125 0 0
0.3125 0 0
0.3125 0 0
0.3125 0 0
0.3125 0 0
0.3125 0 0
0.3125 0 0
0.3125 0 0
0.3125 0 0
0.3125 0 0
0.3125 0 0
0.3125 0 0
0.3125 0 0
0.3125 0 0
0.3125 0 0
0.3125 0 0
0.3125 0 0
0.3125 0 0
0.3125 0 0
0.3125 0 0
0.3125 0 0
0.3125 0 0
0.3125 0 0
0.3125 0 0
0.3125 0 0
0.3125 0 0
0.3125 0 0
0.3125 0 0
0.3125 0 0
0.3125 0 0
0.3125 0 0
0.3125 0 0
0.3125 0 0
0.3125 0 0
0.3125 0 0
0.3125 0 0
0 0 0
0 0 0
0.03125 0 0
0.03125 0 0
0.03125 0 0
0.03125 0 0
0.03125 0 0
0.03125 0 0
0.03125 0 0
0.03125 0 0
0.4375 0 0
0.4375 0 0
0.25 0 0
0.25 0 0
0.25 0 0
0.25 0 0
0.25 0 0
0.25 0 0
0.25 0 0
0.25 0 0
0.25 0 0
0.25 0 0
0.25 0 0
0.25 0 0
0.25 0 0
0.25 0 0
0.25 0 0
0.25 0 0
0.25 0 0
0.25 0 0
0.25 0 0
0.25 0 0
0.25 0 0
0.25 0 0
0.25 0 0
0.25 0 0
0.3125 0 0
0.3125 0 0
0.3125 0 0
0.3125 0 0
0.3125 0 0
0.3125 0 0
0.3125 0 0
0.3125 0 0
0.3125 0 0
0.3125 0 0
0.3125 0 0
0.3125 0 0
0.3125 0 0
0.3125 0 0
0.3125 0 0
0.3125 0 0
0.3125 0 0
0.3125 0 0
0.3125 0 0
0.3125 0 0
0.3125 0 0
0.3125 0 0
0.3125 0 0
0.3125 0 0
0.3125 0 0
0.3125 0 0
0.3125 0 0
0.3125 0 0
0.3125 0 0
0.3125 0 0
0.3125 0 0
0.3125 0 0
0.3125 0 0
0.3125 0 0
0.3125 0 0
0.3125 0 0
0.3125 0 0
0.3125 0 0
0.3125 0 0
0.3125 0 0
0.3125 0 0
0.3125 0 0
0.3125 0 0
0.3125 0 0
0.3125 0 0
0.3125 0 0
0.3125 0 0
0.3125 0 0
0 0 0
0 0 0
0.03125 0 0
0.03125 0 0
0.03125 0 0
0.03125 0 0
0.03125 0 0
0.03125 0 0
0.03125 0 0
0.03125 0 0
0.4375 0 0
0.4375 0 0
0.25 0 0
0.25 0 0
0.25 0 0
0.25 0 0
0.25 0 0
0.25 0 0
0.25 0 0
0.25 0 0
0.25 0 0
0.25 0 0
0.25 0 0
0.25 0 0
0.25 0 0
0.25 0 0
0.25 0 0
0.25 0 0
0.25 0 0
0.25 0 0
0.25 0 0
0.25 0 0
0.25 0 0
0.25 0 0
0.25 0 0
0.25 0 0
0.3125 0 0
0.3125 0 0
0.3125 0 0
0.3125 0 0
0.3125 0 0
0.3125 0 0
0.3125 0 0
0.3125 0 0
0.3125 0 0
0.3125 0 0
0.3125 0 0
0.3125 0 0
0.3125 0 0
0.3125 0 0
0.3125 0 0
0.3125 0 0
0.3125 0 0
0.3125 0 0
0.3125 0 0
0.3125 0 0
0.3125 0 0
0.3125 0 0
0.3125 0 0
0.3125 0 0
0.3125 0 0
0.3125 0 0
0.3125 0 0
0.3125 0 0
0.3125 0 0
0.3125 0 0
0.3125 0 0
0.3125 0 0
0.3125 0 0
0.3125 0 0
0.3125 0 0
0.3125 0 0
0.3125 0 0
0.3125 0 0
0.3125 0 0
0.3125 0 0
0.3125 0 0
0.3125 0 0
0.3125 0 0
0.3125 0 0
0.3125 0 0
0.3125 0 0
0.3125 0 0
0.3125 0 0
0 0 0
0 0 0
0.03125 0 0
0.03125 0 0
0.03125 0 0
0.03125 0 0
0.03125 0 0
0.03125 0 0
0.03125 0 0
0.03125 0 0
0.4375 0 0
0.4375 0 0
0.25 0 0
0.25 0 0
0.25 0 0
0.25 0 0
0.25 0 0
0.25 0 0
0.25 0 0
0.25 0 0
0.25 0 0
0.25 0 0
0.25 0 0
0.25 0 0
0.25 0 0
0.25 0 0
0.25 0 0
0.25 0 0
0.25 0 0
0.25 0 0
0.25 0 0
0.25 0 0
0.25 0 0
0.25 0 0
0.25 0 0
0.25 0 0
0.3125 0 0
0.3125 0 0
0.3125 0 0
0.3125 0 0
0.3125 0 0
0.3125 0 0
0.3125 0 0
0.3125 0 0
0.3125 0 0
0.3125 0 0
0.3125 0 0
0.3125 0 0
0.3125 0 0
0.3125 0 0
0.3125 0 0
0.3125 0 0
0.3125 0 0
0.3125 0 0
0.3125 0 0
0.3125 0 0
0.3125 0 0
0.3125 0 0
0.3125 0 0
0.3125 0 0
0.3125 0 0
0.3125 0 0
0.3125 0 0
0.3125 0 0
0.3125 0 0
0.3125 0 0
0.3125 0 0
0.3125 0 0
0.3125 0 0
0.3125 0 0
0.3125 0 0
0.3125 0 0
0.3125 0 0
0.3125 0 0
0.3125 0 0
0.3125 0 0
0.3125 0 0
0.3125 0 0
0.3125 0 0
0.3125 0 0
0.3125 0 0
0.3125 0 0
0.3125 0 0
0.3125 0 0
0 0 0
0 0 0
0.03125 0 0
0.03125 0 0
0.03125 0 0
0.03125 0 0
0.03125 0 0
0.03125 0 0
0.03125 0 0
0.03125 0 0
0.4375 0 0
0.4375 0 0
0.25 0 0
0.25 0 0
0.25 0 0
0.25 0 0
0.25 0 0
0.25 0 0
0.25 0 0
0.25 0 0
0.25 0 0
0.25 0 0
0.25 0 0
0.25 0 0
0.25 0 0
0.25 0 0
0.25 0 0
0.25 0 0
0.25 0 0
0.25 0 0
0.25 0 0
0.25 0 0
0.25 0 0
0.25 0 0
0.25 0 0
0.25 0 0
0.3125 0 0
0.3125 0 0
0.3125 0 0
0.3125 0 0
0.3125 0 0
0.3125 0 0
0.3125 0 0
0.3125 0 0
0.3125 0 0
0.3125 0 0
0.3125 0 0
0.3125 0 0
0.3125 0 0
0.3125 0 0
0.3125 0 0
0.3125 0 0
0.3125 0 0
0.3125 0 0
0.3125 0 0
0.3125 0 0
0.3125 0 0
0.3125 0 0
0.3125 0 0
0.3125 0 0
0.3125 0 0
0.3125 0 0
0.3125 0 0
0.3125 0 0
0.3125 0 0
0.3125 0 0
0.3125 0 0
0.3125 0 0
0.3125 0 0
0.3125 0 0
0.3125 0 0
0.3125 0 0
0.3125 0 0
0.3125 0 0
0.3125 0 0
0.3125 0 0
0.3125 0 0
0.3125 0 0
0.3125 0 0
0.3125 0 0
0.3125 0 0
0.3125 0 0
0.3125 0 0
0.3125 0 0
0 0 0
0 0 0
0.03125 0 0
0.03125 0 0
0.03125 0 0
0.03125 0 0
0.03125 0 0
0.03125 0 0
0.03125 0 0
0.03125 0 0
0.4375 0 0
0.4375 0 0
0.25 0 0
0.25 0 0
0.25 0 0
0.25 0 0
0.25 0 0
0.25 0 0
0.25 0 0
0.25 0 0
0.25 0 0
0.25 0 0
0.25 0 0
0.25 0 0
0.25 0 0
0.25 0 0
0.25 0 0
0.25 0 0
0.25 0 0
0.25 0 0
0.25 0 0
0.25 0 0
0.25 0 0
0.25 0 0
0.25 0 0
0.25 0 0
0.3125 0 0
0.3125 0 0
0.3125 0 0
0.3125 0 0
0.3125 0 0
0.3125 0 0
0.3125 0 0
0.3125 0 0
0.3125 0 0
0.3125 0 0
0.3125 0 0
0.3125 0 0
0.3125 0 0
0.3125 0 0
0.3125 0 0
0.3125 0 0
0.3125 0 0
0.3125 0 0
0.3125 0 0
0.3125 0 0
0.3125 0 0
0.3125 0 0
0.3125 0 0
0.3125 0 0
0.3125 0 0
0.3125 0 0
0.3125 0 0
0.3125 0 0
0.3125 0 0
0.3125 0 0
0.3125 0 0
0.3125 0 0
0.3125 0 0
0.3125 0 0
0.3125 0 0
0.3125 0 0
0.3125 0 0
0.3125 0 0
0.3125 0 0
0.3125 0 0
0.3125 0 0
0.3125 0 0
0.3125 0 0
0.3125 0 0
0.3125 0 0
0.3125 0 0
0.3125 0 0
0.3125 0 0
0 0 0
0 0 0
0.03125 0 0
0.03125 0 0
0.03125 0 0
0.03125 0 0
0.03125 0 0
0.03125 0 0
0.03125 0 0
0.03125 0 0
0.4375 0 0
0.4375 0 0
0.25 0 0
0.25 0 0
0.25 0 0
0.25 0 0
0.25 0 0
0.25 0 0
0.25 0 0
0.25 0 0
0.25 0 0
0.25 0 0
0.25 0 0
0.25 0 0
0.25 0 0
0.25 0 0
0.25 0 0
0.25 0 0
0.25 0 0
0.25 0 0
0.25 0 0
0.25 0 0
0.25 0 0
0.25 0 0
0.25 0 0
0.25 0 0
0.3125 0 0
0.3125 0 0
0.3125 0 0
0.3125 0 0
0.3125 0 0
0.3125 0 0
0.3125 0 0
0.3125 0 0
0.3125 0 0
0.3125 0 0
0.3125 0 0
0.3125 0 0
0.3125 0 0
0.3125 0 0
0.3125 0 0
0.3125 0 0
0.3125 0 0
0.3125 0 0
0.3125 0 0
0.3125 0 0
0.3125 0 0
0.3125 0 0
0.3125 0 0
0.3125 0 0
0.3125 0 0
0.3125 0 0
0.3125 0 0
0.3125 0 0
0.3125 0 0
0.3125 0 0
0.3125 0 0
0.3125 0 0
0.3125 0 0
0.3125 0 0
0.3125 0 0
0.3125 0 0
0.3125 0 0
0.3125 0 0
0.3125 0 0
0.3125 0 0
0.3125 0 0
0.3125 0 0
0.3125 0 0
0.3125 0 0
0.3125 0 0
0.3125 0 0
0.3125 0 0
0.3125 0 0
0 0 0
0 0 0
0.03125 0 0
0.03125 0 0
0.03125 0 0
0.03125 0 0
0.03125 0 0
0.03125 0 0
0.03125 0 0
0.03125 0 0
0.4375 0 0
0.4375 0 0
0.25 0 0
0.25 0 0
0.25 0 0
0.25 0 0
0.25 0 0
0.25 0 0
0.25 0 0
0.25 0 0
0.25 0 0
0.25 0 0
0.25 0 0
0.25 0 0
0.25 0 0
0.25 0 0
0.25 0 0
0.25 0 0
0.25 0 0
0.25 0 0
0.25 0 0
0.25 0 0
0.25 0 0
0.25 0 0
0.25 0 0
0.25 0 0
0.3125 0 0
0.3125 0 0
0.3125 0 0
0.3125 0 0
0.3125 0 0
0.3125 0 0
0.3125 0 0
0.3125 0 0
0.3125 0 0
0.3125 0 0
0.3125 0 0
0.3125 0 0
0.3125 0 0
0.3125 0 0
0.3125 0 0
0.3125 0 0
0.3125 0 0
0.3125 0 0
0.3125 0 0
0.3125 0 0
0.3125 0 0
0.3125 0 0
0.3125 0 0
0.3125 0 0
0.3125 0 0
0.3125 0 0
0.3125 0 0
0.3125 0 0
0.3125 0 0
0.3125 0 0
0.3125 0 0
0.3125 0 0
0.3125 0 0
0.3125 0 0
0.3125 0 0
0.3125 0 0
0.3125 0 0
0.3125 0 0
0.3125 0 0
0.3125 0 0
0.3125 0 0
0.3125 0 0
0.3125 0 0
0.3125 0 0
0.3125 0 0
0.3125 0 0
0.3125 0 0
0.3125 0 0
0 0 0
0 0 0
0.03125 0 0
0.03125 0 0
0.03125 0 0
0.03125 0 0
0.03125 0 0
0.03125 0 0
0.03125 0 0
0.03125 0 0
