# vtk DataFile Version 1.0
Cube
ASCII

DATASET POLYDATA
POINTS 464 float
11.790291 8.045180 14.722178
0.399688 6.295839 9.976938
1.478640 5.276564 10.108271
0.553190 4.239951 9.467341
0.922226 4.996642 11.435748
0.913776 3.226142 8.482401
12.049064 7.575055 13.349910
12.450533 5.252146 9.322831
11.953236 5.041015 10.697267
12.750606 5.957265 11.265278
12.974544 3.956184 10.785583
12.352457 6.921215 12.354436
0.257942 12.588217 3.307038
0.951032 10.366079 3.615399
1.067500 11.722862 3.920103
0.475702 13.926415 3.434291
12.984111 9.804402 2.690949
12.286407 12.050521 2.381844
12.159389 10.690443 2.084542
12.798029 8.436675 2.604496
1.203553 2.388797 7.665601
1.453844 1.527936 6.542003
2.154763 4.601612 2.118922
3.652240 4.617702 2.176377
6.306317 4.420004 2.601282
4.863402 4.545312 2.330434
6.832482 3.571729 3.412902
8.293155 3.443340 3.685540
10.792313 3.437555 3.847215
9.525521 3.431802 3.775639
2.522115 5.387199 9.873531
0.554167 7.269342 9.657800
1.510227 4.902355 12.316872
12.813569 2.981507 11.108995
11.001615 4.925470 10.896520
11.857553 5.340858 8.441699
2.012086 13.010401 4.949383
1.615103 8.690665 4.069292
11.179741 9.344902 1.067552
11.605606 13.745113 1.982289
6.132085 2.957539 3.858332
6.969627 5.050286 2.134849
0.367968 0.916008 3.379073
12.623935 7.276841 2.518562
2.018845 12.147088 4.815206
1.774560 9.618090 4.293737
11.204282 10.293954 1.194207
11.462347 12.819397 1.720108
2.127711 2.075278 5.671459
1.459537 3.839448 2.930932
1.471206 5.258576 1.255071
0.389979 1.227855 5.919464
11.507909 4.196664 3.040672
11.474953 2.769411 4.709790
12.528691 6.900455 0.038781
10.905417 5.934017 0.043630
0.511438 2.493152 4.370189
12.447575 5.585952 1.558930
12.067139 9.380435 30.151402
0.676537 7.631095 25.406162
1.755489 6.611820 25.537496
0.830039 5.575206 24.896566
1.199074 6.331897 26.864973
1.190624 4.561397 23.911626
12.325913 8.910311 28.779135
12.727382 6.587401 24.752056
12.230084 6.376271 26.126491
13.027455 7.292521 26.694503
13.251393 5.291440 26.214808
12.629305 8.256471 27.783661
0.534791 13.923473 18.736263
1.227881 11.701335 19.044624
1.344348 13.058118 19.349328
0.752551 15.261671 18.863515
13.260960 11.139658 18.120174
12.563256 13.385777 17.811069
12.436237 12.025698 17.513767
13.074878 9.771931 18.033720
1.480402 3.724053 23.094826
1.730693 2.863192 21.971227
2.431612 5.936867 17.548147
3.929089 5.952958 17.605602
6.583166 5.755259 18.030507
5.140250 5.880568 17.759659
7.109331 4.906985 18.842127
8.570004 4.778596 19.114765
11.069162 4.772810 19.276440
9.802369 4.767058 19.204864
2.798964 6.722455 25.302756
0.831015 8.604598 25.087024
1.787076 6.237611 27.746097
13.090418 4.316762 26.538220
11.278464 6.260726 26.325744
12.134402 6.676113 23.870924
2.288935 14.345657 20.378607
1.891952 10.025921 19.498517
11.456589 10.680157 16.496777
11.882455 15.080369 17.411514
6.408934 4.292795 19.287557
7.246476 6.385541 17.564074
0.644817 2.251264 18.808298
12.900784 8.612097 17.947787
2.295694 13.482344 20.244431
2.051409 10.953346 19.722962
11.481131 11.629210 16.623431
11.739196 14.154652 17.149332
2.404560 3.410534 21.100684
1.736386 5.174704 18.360156
1.748055 6.593832 16.684296
0.666828 2.563111 21.348689
11.784758 5.531920 18.469897
11.751802 4.104667 20.139015
12.805539 8.235711 15.468006
11.182266 7.269273 15.472855
0.788287 3.828407 19.799414
12.724424 6.921208 16.988155
11.945485 22.410013 14.722178
0.554883 20.660673 9.976938
1.633835 19.641398 10.108271
0.708385 18.604784 9.467341
1.077420 19.361475 11.435748
1.068970 17.590975 8.482401
12.204259 21.939889 13.349910
12.605728 19.616979 9.322831
12.108431 19.405849 10.697267
12.905801 20.322098 11.265278
13.129739 18.321017 10.785583
12.507651 21.286049 12.354436
0.413137 26.953051 3.307038
1.106227 24.730913 3.615399
1.222695 26.087696 3.920103
0.630897 28.291249 3.434291
13.139306 24.169236 2.690949
12.441602 26.415355 2.381844
12.314584 25.055276 2.084542
12.953224 22.801508 2.604496
1.358748 16.753630 7.665601
1.609039 15.892770 6.542003
2.309958 18.966445 2.118922
3.807435 18.982536 2.176377
6.461512 18.784837 2.601282
5.018596 18.910146 2.330434
6.987677 17.936563 3.412902
8.448350 17.808174 3.685540
10.947508 17.802388 3.847215
9.680715 17.796636 3.775639
2.677310 19.752033 9.873531
0.709362 21.634176 9.657800
1.665422 19.267189 12.316872
12.968764 17.346340 11.108995
11.156810 19.290304 10.896520
12.012748 19.705691 8.441699
2.167281 27.375234 4.949383
1.770298 23.055499 4.069292
11.334935 23.709735 1.067552
11.760801 28.109947 1.982289
6.287280 17.322373 3.858332
7.124822 19.415119 2.134849
0.523163 15.280842 3.379073
12.779130 21.641675 2.518562
2.174040 26.511922 4.815206
1.929755 23.982924 4.293737
11.359477 24.658788 1.194207
11.617542 27.184230 1.720108
2.282906 16.440112 5.671459
1.614732 18.204282 2.930932
1.626401 19.623410 1.255071
0.545174 15.592689 5.919464
11.663104 18.561498 3.040672
11.630148 17.134245 4.709790
12.683885 21.265289 0.038781
11.060612 20.298851 0.043630
0.666633 16.857985 4.370189
12.602770 19.950786 1.558930
12.222334 23.745269 30.151402
0.831732 21.995929 25.406162
1.910684 20.976653 25.537496
0.985234 19.940040 24.896566
1.354269 20.696731 26.864973
1.345819 18.926231 23.911626
12.481108 23.275145 28.779135
12.882577 20.952235 24.752056
12.385279 20.741104 26.126491
13.182650 21.657354 26.694503
13.406588 19.656273 26.214808
12.784500 22.621304 27.783661
0.689986 28.288307 18.736263
1.383076 26.066169 19.044624
1.499543 27.422951 19.349328
0.907746 29.626505 18.863515
13.416155 25.504492 18.120174
12.718451 27.750610 17.811069
12.591432 26.390532 17.513767
13.230073 24.136764 18.033720
1.635597 18.088886 23.094826
1.885888 17.228025 21.971227
2.586807 20.301701 17.548147
4.084284 20.317791 17.605602
6.738361 20.120093 18.030507
5.295445 20.245402 17.759659
7.264526 19.271819 18.842127
8.725199 19.143429 19.114765
11.224357 19.137644 19.276440
9.957564 19.131892 19.204864
2.954158 21.087289 25.302756
0.986210 22.969431 25.087024
1.942270 20.602445 27.746097
13.245613 18.681596 26.538220
11.433659 20.625559 26.325744
12.289597 21.040947 23.870924
2.444129 28.710490 20.378607
2.047147 24.390755 19.498517
11.611784 25.044991 16.496777
12.037650 29.445202 17.411514
6.564129 18.657628 19.287557
7.401671 20.750375 17.564074
0.800012 16.616098 18.808298
13.055979 22.976930 17.947787
2.450889 27.847177 20.244431
2.206604 25.318179 19.722962
11.636326 25.994044 16.623431
11.894391 28.519486 17.149332
2.559755 17.775368 21.100684
1.891581 19.539538 18.360156
1.903250 20.958666 16.684296
0.822023 16.927945 21.348689
11.939953 19.896754 18.469897
11.906997 18.469501 20.139015
12.960734 22.600544 15.468006
11.337461 21.634107 15.472855
0.943482 18.193241 19.799414
12.879618 21.286042 16.988155
24.746888 8.045180 14.722178
13.356286 6.295839 9.976938
14.435238 5.276564 10.108271
13.509788 4.239951 9.467341
13.878823 4.996642 11.435748
13.870373 3.226142 8.482401
25.005662 7.575055 13.349910
25.407131 5.252146 9.322831
24.909833 5.041015 10.697267
25.707203 5.957265 11.265278
25.931141 3.956184 10.785583
25.309054 6.921215 12.354436
13.214540 12.588217 3.307038
13.907630 10.366079 3.615399
14.024097 11.722862 3.920103
13.432300 13.926415 3.434291
25.940709 9.804402 2.690949
25.243004 12.050521 2.381844
25.115986 10.690443 2.084542
25.754626 8.436675 2.604496
14.160151 2.388797 7.665601
14.410441 1.527936 6.542003
15.111361 4.601612 2.118922
16.608837 4.617702 2.176377
19.262914 4.420004 2.601282
17.819999 4.545312 2.330434
19.789080 3.571729 3.412902
21.249752 3.443340 3.685540
23.748910 3.437555 3.847215
22.482118 3.431802 3.775639
15.478712 5.387199 9.873531
13.510764 7.269342 9.657800
14.466824 4.902355 12.316872
25.770166 2.981507 11.108995
23.958213 4.925470 10.896520
24.814150 5.340858 8.441699
14.968683 13.010401 4.949383
14.571701 8.690665 4.069292
24.136338 9.344902 1.067552
24.562203 13.745113 1.982289
19.088683 2.957539 3.858332
19.926224 5.050286 2.134849
13.324565 0.916008 3.379073
25.580533 7.276841 2.518562
14.975443 12.147088 4.815206
14.731157 9.618090 4.293737
24.160879 10.293954 1.194207
24.418945 12.819397 1.720108
15.084309 2.075278 5.671459
14.416134 3.839448 2.930932
14.427803 5.258576 1.255071
13.346576 1.227855 5.919464
24.464506 4.196664 3.040672
24.431551 2.769411 4.709790
25.485288 6.900455 0.038781
23.862014 5.934017 0.043630
13.468035 2.493152 4.370189
25.404172 5.585952 1.558930
25.023737 9.380435 30.151402
13.633134 7.631095 25.406162
14.712087 6.611820 25.537496
13.786636 5.575206 24.896566
14.155672 6.331897 26.864973
14.147222 4.561397 23.911626
25.282511 8.910311 28.779135
25.683980 6.587401 24.752056
25.186682 6.376271 26.126491
25.984052 7.292521 26.694503
26.207990 5.291440 26.214808
25.585903 8.256471 27.783661
13.491388 13.923473 18.736263
14.184479 11.701335 19.044624
14.300946 13.058118 19.349328
13.709149 15.261671 18.863515
26.217557 11.139658 18.120174
25.519853 13.385777 17.811069
25.392835 12.025698 17.513767
26.031475 9.771931 18.033720
14.437000 3.724053 23.094826
14.687290 2.863192 21.971227
15.388210 5.936867 17.548147
16.885686 5.952958 17.605602
19.539763 5.755259 18.030507
18.096848 5.880568 17.759659
20.065928 4.906985 18.842127
21.526601 4.778596 19.114765
24.025759 4.772810 19.276440
22.758967 4.767058 19.204864
15.755561 6.722455 25.302756
13.787613 8.604598 25.087024
14.743673 6.237611 27.746097
26.047015 4.316762 26.538220
24.235061 6.260726 26.325744
25.090999 6.676113 23.870924
15.245532 14.345657 20.378607
14.848550 10.025921 19.498517
24.413187 10.680157 16.496777
24.839052 15.080369 17.411514
19.365531 4.292795 19.287557
20.203073 6.385541 17.564074
13.601414 2.251264 18.808298
25.857382 8.612097 17.947787
15.252292 13.482344 20.244431
15.008006 10.953346 19.722962
24.437728 11.629210 16.623431
24.695794 14.154652 17.149332
15.361157 3.410534 21.100684
14.692983 5.174704 18.360156
14.704652 6.593832 16.684296
13.623425 2.563111 21.348689
24.741355 5.531920 18.469897
24.708399 4.104667 20.139015
25.762137 8.235711 15.468006
24.138863 7.269273 15.472855
13.744884 3.828407 19.799414
25.681021 6.921208 16.988155
24.902083 22.410013 14.722178
13.511481 20.660673 9.976938
14.590433 19.641398 10.108271
13.664982 18.604784 9.467341
14.034018 19.361475 11.435748
14.025568 17.590975 8.482401
25.160857 21.939889 13.349910
25.562326 19.616979 9.322831
25.065028 19.405849 10.697267
25.862398 20.322098 11.265278
26.086336 18.321017 10.785583
25.464249 21.286049 12.354436
13.369734 26.953051 3.307038
14.062825 24.730913 3.615399
14.179292 26.087696 3.920103
13.587495 28.291249 3.434291
26.095903 24.169236 2.690949
25.398199 26.415355 2.381844
25.271181 25.055276 2.084542
25.909821 22.801508 2.604496
14.315346 16.753630 7.665601
14.565636 15.892770 6.542003
15.266556 18.966445 2.118922
16.764032 18.982536 2.176377
19.418109 18.784837 2.601282
17.975194 18.910146 2.330434
19.944275 17.936563 3.412902
21.404947 17.808174 3.685540
23.904105 17.802388 3.847215
22.637313 17.796636 3.775639
15.633907 19.752033 9.873531
13.665959 21.634176 9.657800
14.622019 19.267189 12.316872
25.925361 17.346340 11.108995
24.113407 19.290304 10.896520
24.969345 19.705691 8.441699
15.123878 27.375234 4.949383
14.726896 23.055499 4.069292
24.291533 23.709735 1.067552
24.717398 28.109947 1.982289
19.243878 17.322373 3.858332
20.081419 19.415119 2.134849
13.479760 15.280842 3.379073
25.735728 21.641675 2.518562
15.130638 26.511922 4.815206
14.886352 23.982924 4.293737
24.316074 24.658788 1.194207
24.574140 27.184230 1.720108
15.239503 16.440112 5.671459
14.571329 18.204282 2.930932
14.582998 19.623410 1.255071
13.501771 15.592689 5.919464
24.619701 18.561498 3.040672
24.586745 17.134245 4.709790
25.640483 21.265289 0.038781
24.017209 20.298851 0.043630
13.623230 16.857985 4.370189
25.559367 19.950786 1.558930
25.178932 23.745269 30.151402
13.788329 21.995929 25.406162
14.867282 20.976653 25.537496
13.941831 19.940040 24.896566
14.310867 20.696731 26.864973
14.302417 18.926231 23.911626
25.437706 23.275145 28.779135
25.839175 20.952235 24.752056
25.341877 20.741104 26.126491
26.139247 21.657354 26.694503
26.363185 19.656273 26.214808
25.741098 22.621304 27.783661
13.646583 28.288307 18.736263
14.339674 26.066169 19.044624
14.456141 27.422951 19.349328
13.864344 29.626505 18.863515
26.372752 25.504492 18.120174
25.675048 27.750610 17.811069
25.548030 26.390532 17.513767
26.186670 24.136764 18.033720
14.592194 18.088886 23.094826
14.842485 17.228025 21.971227
15.543405 20.301701 17.548147
17.040881 20.317791 17.605602
19.694958 20.120093 18.030507
18.252043 20.245402 17.759659
20.221123 19.271819 18.842127
21.681796 19.143429 19.114765
24.180954 19.137644 19.276440
22.914162 19.131892 19.204864
15.910756 21.087289 25.302756
13.942808 22.969431 25.087024
14.898868 20.602445 27.746097
26.202210 18.681596 26.538220
24.390256 20.625559 26.325744
25.246194 21.040947 23.870924
15.400727 28.710490 20.378607
15.003745 24.390755 19.498517
24.568382 25.044991 16.496777
24.994247 29.445202 17.411514
19.520726 18.657628 19.287557
20.358268 20.750375 17.564074
13.756609 16.616098 18.808298
26.012577 22.976930 17.947787
15.407487 27.847177 20.244431
15.163201 25.318179 19.722962
24.592923 25.994044 16.623431
24.850988 28.519486 17.149332
15.516352 17.775368 21.100684
14.848178 19.539538 18.360156
14.859847 20.958666 16.684296
13.778620 16.927945 21.348689
24.896550 19.896754 18.469897
24.863594 18.469501 20.139015
25.917332 22.600544 15.468006
24.294058 21.634107 15.472855
13.900079 18.193241 19.799414
25.836216 21.286042 16.988155
POINT_DATA 464
SCALARS my_scalars float
LOOKUP_TABLE default
1.7
1.7
1.7
1.7
1.7
1.7
1.7
1.7
1.7
1.7
1.7
1.7
1.7
1.7
1.7
1.7
1.7
1.7
1.7
1.7
1.7
1.7
1.7
1.7
1.7
1.7
1.7
1.7
1.7
1.7
1.09
1.09
1.09
1.09
1.09
1.09
1.09
1.09
1.09
1.09
1.09
1.09
1.55
1.55
1.52
1.52
1.52
1.52
1.52
1.52
1.52
1.52
1.52
1.52
1.52
1.52
1.39
1.39
1.7
1.7
1.7
1.7
1.7
1.7
1.7
1.7
1.7
1.7
1.7
1.7
1.7
1.7
1.7
1.7
1.7
1.7
1.7
1.7
1.7
1.7
1.7
1.7
1.7
1.7
1.7
1.7
1.7
1.7
1.09
1.09
1.09
1.09
1.09
1.09
1.09
1.09
1.09
1.09
1.09
1.09
1.55
1.55
1.52
1.52
1.52
1.52
1.52
1.52
1.52
1.52
1.52
1.52
1.52
1.52
1.39
1.39
1.7
1.7
1.7
1.7
1.7
1.7
1.7
1.7
1.7
1.7
1.7
1.7
1.7
1.7
1.7
1.7
1.7
1.7
1.7
1.7
1.7
1.7
1.7
1.7
1.7
1.7
1.7
1.7
1.7
1.7
1.09
1.09
1.09
1.09
1.09
1.09
1.09
1.09
1.09
1.09
1.09
1.09
1.55
1.55
1.52
1.52
1.52
1.52
1.52
1.52
1.52
1.52
1.52
1.52
1.52
1.52
1.39
1.39
1.7
1.7
1.7
1.7
1.7
1.7
1.7
1.7
1.7
1.7
1.7
1.7
1.7
1.7
1.7
1.7
1.7
1.7
1.7
1.7
1.7
1.7
1.7
1.7
1.7
1.7
1.7
1.7
1.7
1.7
1.09
1.09
1.09
1.09
1.09
1.09
1.09
1.09
1.09
1.09
1.09
1.09
1.55
1.55
1.52
1.52
1.52
1.52
1.52
1.52
1.52
1.52
1.52
1.52
1.52
1.52
1.39
1.39
1.7
1.7
1.7
1.7
1.7
1.7
1.7
1.7
1.7
1.7
1.7
1.7
1.7
1.7
1.7
1.7
1.7
1.7
1.7
1.7
1.7
1.7
1.7
1.7
1.7
1.7
1.7
1.7
1.7
1.7
1.09
1.09
1.09
1.09
1.09
1.09
1.09
1.09
1.09
1.09
1.09
1.09
1.55
1.55
1.52
1.52
1.52
1.52
1.52
1.52
1.52
1.52
1.52
1.52
1.52
1.52
1.39
1.39
1.7
1.7
1.7
1.7
1.7
1.7
1.7
1.7
1.7
1.7
1.7
1.7
1.7
1.7
1.7
1.7
1.7
1.7
1.7
1.7
1.7
1.7
1.7
1.7
1.7
1.7
1.7
1.7
1.7
1.7
1.09
1.09
1.09
1.09
1.09
1.09
1.09
1.09
1.09
1.09
1.09
1.09
1.55
1.55
1.52
1.52
1.52
1.52
1.52
1.52
1.52
1.52
1.52
1.52
1.52
1.52
1.39
1.39
1.7
1.7
1.7
1.7
1.7
1.7
1.7
1.7
1.7
1.7
1.7
1.7
1.7
1.7
1.7
1.7
1.7
1.7
1.7
1.7
1.7
1.7
1.7
1.7
1.7
1.7
1.7
1.7
1.7
1.7
1.09
1.09
1.09
1.09
1.09
1.09
1.09
1.09
1.09
1.09
1.09
1.09
1.55
1.55
1.52
1.52
1.52
1.52
1.52
1.52
1.52
1.52
1.52
1.52
1.52
1.52
1.39
1.39
1.7
1.7
1.7
1.7
1.7
1.7
1.7
1.7
1.7
1.7
1.7
1.7
1.7
1.7
1.7
1.7
1.7
1.7
1.7
1.7
1.7
1.7
1.7
1.7
1.7
1.7
1.7
1.7
1.7
1.7
1.09
1.09
1.09
1.09
1.09
1.09
1.09
1.09
1.09
1.09
1.09
1.09
1.55
1.55
1.52
1.52
1.52
1.52
1.52
1.52
1.52
1.52
1.52
1.52
1.52
1.52
1.39
1.39
VECTORS vectors float
0.3125 0 0
0.3125 0 0
0.3125 0 0
0.3125 0 0
0.3125 0 0
0.3125 0 0
0.3125 0 0
0.3125 0 0
0.3125 0 0
0.3125 0 0
0.3125 0 0
0.3125 0 0
0.3125 0 0
0.3125 0 0
0.3125 0 0
0.3125 0 0
0.3125 0 0
0.3125 0 0
0.3125 0 0
0.3125 0 0
0.3125 0 0
0.3125 0 0
0.3125 0 0
0.3125 0 0
0.3125 0 0
0.3125 0 0
0.3125 0 0
0.3125 0 0
0.3125 0 0
0.3125 0 0
0.25 0 0
0.25 0 0
0.25 0 0
0.25 0 0
0.25 0 0
0.25 0 0
0.25 0 0
0.25 0 0
0.25 0 0
0.25 0 0
0.25 0 0
0.25 0 0
0 0 0
0 0 0
0.03125 0 0
0.03125 0 0
0.03125 0 0
0.03125 0 0
0.03125 0 0
0.03125 0 0
0.03125 0 0
0.03125 0 0
0.03125 0 0
0.03125 0 0
0.03125 0 0
0.03125 0 0
0.4375 0 0
0.4375 0 0
0.3125 0 0
0.3125 0 0
0.3125 0 0
0.3125 0 0
0.3125 0 0
0.3125 0 0
0.3125 0 0
0.3125 0 0
0.3125 0 0
0.3125 0 0
0.3125 0 0
0.3125 0 0
0.3125 0 0
0.3125 0 0
0.3125 0 0
0.3125 0 0
0.3125 0 0
0.3125 0 0
0.3125 0 0
0.3125 0 0
0.3125 0 0
0.3125 0 0
0.3125 0 0
0.3125 0 0
0.3125 0 0
0.3125 0 0
0.3125 0 0
0.3125 0 0
0.3125 0 0
0.3125 0 0
0.25 0 0
0.25 0 0
0.25 0 0
0.25 0 0
0.25 0 0
0.25 0 0
0.25 0 0
0.25 0 0
0.25 0 0
0.25 0 0
0.25 0 0
0.25 0 0
0 0 0
0 0 0
0.03125 0 0
0.03125 0 0
0.03125 0 0
0.03125 0 0
0.03125 0 0
0.03125 0 0
0.03125 0 0
0.03125 0 0
0.03125 0 0
0.03125 0 0
0.03125 0 0
0.03125 0 0
0.4375 0 0
0.4375 0 0
0.3125 0 0
0.3125 0 0
0.3125 0 0
0.3125 0 0
0.3125 0 0
0.3125 0 0
0.3125 0 0
0.3125 0 0
0.3125 0 0
0.3125 0 0
0.3125 0 0
0.3125 0 0
0.3125 0 0
0.3125 0 0
0.3125 0 0
0.3125 0 0
0.3125 0 0
0.3125 0 0
0.3125 0 0
0.3125 0 0
0.3125 0 0
0.3125 0 0
0.3125 0 0
0.3125 0 0
0.3125 0 0
0.3125 0 0
0.3125 0 0
0.3125 0 0
0.3125 0 0
0.3125 0 0
0.25 0 0
0.25 0 0
0.25 0 0
0.25 0 0
0.25 0 0
0.25 0 0
0.25 0 0
0.25 0 0
0.25 0 0
0.25 0 0
0.25 0 0
0.25 0 0
0 0 0
0 0 0
0.03125 0 0
0.03125 0 0
0.03125 0 0
0.03125 0 0
0.03125 0 0
0.03125 0 0
0.03125 0 0
0.03125 0 0
0.03125 0 0
0.03125 0 0
0.03125 0 0
0.03125 0 0
0.4375 0 0
0.4375 0 0
0.3125 0 0
0.3125 0 0
0.3125 0 0
0.3125 0 0
0.3125 0 0
0.3125 0 0
0.3125 0 0
0.3125 0 0
0.3125 0 0
0.3125 0 0
0.3125 0 0
0.3125 0 0
0.3125 0 0
0.3125 0 0
0.3125 0 0
0.3125 0 0
0.3125 0 0
0.3125 0 0
0.3125 0 0
0.3125 0 0
0.3125 0 0
0.3125 0 0
0.3125 0 0
0.3125 0 0
0.3125 0 0
0.3125 0 0
0.3125 0 0
0.3125 0 0
0.3125 0 0
0.3125 0 0
0.25 0 0
0.25 0 0
0.25 0 0
0.25 0 0
0.25 0 0
0.25 0 0
0.25 0 0
0.25 0 0
0.25 0 0
0.25 0 0
0.25 0 0
0.25 0 0
0 0 0
0 0 0
0.03125 0 0
0.03125 0 0
0.03125 0 0
0.03125 0 0
0.03125 0 0
0.03125 0 0
0.03125 0 0
0.03125 0 0
0.03125 0 0
0.03125 0 0
0.03125 0 0
0.03125 0 0
0.4375 0 0
0.4375 0 0
0.3125 0 0
0.3125 0 0
0.3125 0 0
0.3125 0 0
0.3125 0 0
0.3125 0 0
0.3125 0 0
0.3125 0 0
0.3125 0 0
0.3125 0 0
0.3125 0 0
0.3125 0 0
0.3125 0 0
0.3125 0 0
0.3125 0 0
0.3125 0 0
0.3125 0 0
0.3125 0 0
0.3125 0 0
0.3125 0 0
0.3125 0 0
0.3125 0 0
0.3125 0 0
0.3125 0 0
0.3125 0 0
0.3125 0 0
0.3125 0 0
0.3125 0 0
0.3125 0 0
0.3125 0 0
0.25 0 0
0.25 0 0
0.25 0 0
0.25 0 0
0.25 0 0
0.25 0 0
0.25 0 0
0.25 0 0
0.25 0 0
0.25 0 0
0.25 0 0
0.25 0 0
0 0 0
0 0 0
0.03125 0 0
0.03125 0 0
0.03125 0 0
0.03125 0 0
0.03125 0 0
0.03125 0 0
0.03125 0 0
0.03125 0 0
0.03125 0 0
0.03125 0 0
0.03125 0 0
0.03125 0 0
0.4375 0 0
0.4375 0 0
0.3125 0 0
0.3125 0 0
0.3125 0 0
0.3125 0 0
0.3125 0 0
0.3125 0 0
0.3125 0 0
0.3125 0 0
0.3125 0 0
0.3125 0 0
0.3125 0 0
0.3125 0 0
0.3125 0 0
0.3125 0 0
0.3125 0 0
0.3125 0 0
0.3125 0 0
0.3125 0 0
0.3125 0 0
0.3125 0 0
0.3125 0 0
0.3125 0 0
0.3125 0 0
0.3125 0 0
0.3125 0 0
0.3125 0 0
0.3125 0 0
0.3125 0 0
0.3125 0 0
0.3125 0 0
0.25 0 0
0.25 0 0
0.25 0 0
0.25 0 0
0.25 0 0
0.25 0 0
0.25 0 0
0.25 0 0
0.25 0 0
0.25 0 0
0.25 0 0
0.25 0 0
0 0 0
0 0 0
0.03125 0 0
0.03125 0 0
0.03125 0 0
0.03125 0 0
0.03125 0 0
0.03125 0 0
0.03125 0 0
0.03125 0 0
0.03125 0 0
0.03125 0 0
0.03125 0 0
0.03125 0 0
0.4375 0 0
0.4375 0 0
0.3125 0 0
0.3125 0 0
0.3125 0 0
0.3125 0 0
0.3125 0 0
0.3125 0 0
0.3125 0 0
0.3125 0 0
0.3125 0 0
0.3125 0 0
0.3125 0 0
0.3125 0 0
0.3125 0 0
0.3125 0 0
0.3125 0 0
0.3125 0 0
0.3125 0 0
0.3125 0 0
0.3125 0 0
0.3125 0 0
0.3125 0 0
0.3125 0 0
0.3125 0 0
0.3125 0 0
0.3125 0 0
0.3125 0 0
0.3125 0 0
0.3125 0 0
0.3125 0 0
0.3125 0 0
0.25 0 0
0.25 0 0
0.25 0 0
0.25 0 0
0.25 0 0
0.25 0 0
0.25 0 0
0.25 0 0
0.25 0 0
0.25 0 0
0.25 0 0
0.25 0 0
0 0 0
0 0 0
0.03125 0 0
0.03125 0 0
0.03125 0 0
0.03125 0 0
0.03125 0 0
0.03125 0 0
0.03125 0 0
0.03125 0 0
0.03125 0 0
0.03125 0 0
0.03125 0 0
0.03125 0 0
0.4375 0 0
0.4375 0 0
0.3125 0 0
0.3125 0 0
0.3125 0 0
0.3125 0 0
0.3125 0 0
0.3125 0 0
0.3125 0 0
0.3125 0 0
0.3125 0 0
0.3125 0 0
0.3125 0 0
0.3125 0 0
0.3125 0 0
0.3125 0 0
0.3125 0 0
0.3125 0 0
0.3125 0 0
0.3125 0 0
0.3125 0 0
0.3125 0 0
0.3125 0 0
0.3125 0 0
0.3125 0 0
0.3125 0 0
0.3125 0 0
0.3125 0 0
0.3125 0 0
0.3125 0 0
0.3125 0 0
0.3125 0 0
0.25 0 0
0.25 0 0
0.25 0 0
0.25 0 0
0.25 0 0
0.25 0 0
0.25 0 0
0.25 0 0
0.25 0 0
0.25 0 0
0.25 0 0
0.25 0 0
0 0 0
0 0 0
0.03125 0 0
0.03125 0 0
0.03125 0 0
0.03125 0 0
0.03125 0 0
0.03125 0 0
0.03125 0 0
0.03125 0 0
0.03125 0 0
0.03125 0 0
0.03125 0 0
0.03125 0 0
0.4375 0 0
0.4375 0 0
