# vtk DataFile Version 1.0
Cube
ASCII

DATASET POLYDATA
POINTS 656 float
7.862104 10.723589 12.890207
10.799479 10.231463 12.084577
9.515418 7.895136 3.032810
4.154004 9.630182 7.467497
5.881789 10.248472 2.281414
8.497969 10.000443 8.012368
14.635365 11.269945 3.617740
12.388786 8.775846 6.691713
11.453569 8.146850 4.510091
15.226747 10.580565 5.899112
7.712902 8.073671 1.518583
6.638597 6.113635 2.638899
5.705541 6.840687 1.272700
5.240967 7.221978 2.966417
5.870224 9.121607 9.006647
7.032651 7.117874 9.498295
7.563366 6.982552 7.786427
5.816007 6.750873 8.213340
9.735281 3.482984 11.752684
7.051184 3.931681 13.220832
4.208557 0.274230 12.880999
14.497721 0.787759 12.957987
14.037966 13.582436 12.868370
16.608222 8.260871 11.886607
14.886495 6.604771 11.575002
5.318159 9.743078 12.371299
12.493334 7.214093 11.903151
12.428007 11.839663 12.634967
7.523224 8.538931 3.537711
6.187835 9.146080 6.950499
8.872734 8.288165 3.812799
4.877229 9.546637 6.664105
10.965880 9.680986 8.870682
3.540203 11.051722 1.386693
10.485110 9.397460 7.517211
3.872144 10.764211 2.783259
10.788774 8.503762 5.287892
3.254773 10.455530 5.103868
11.324849 8.882470 6.520336
2.925121 10.868882 3.811301
9.114710 9.503247 7.279270
5.128729 10.222839 3.054118
8.544145 9.017238 6.103141
5.434136 9.692448 4.307283
9.405024 8.594371 5.063834
4.515217 9.892933 5.363600
7.145514 9.068306 5.893495
6.688025 9.086455 4.559131
6.101751 7.023433 2.293838
6.738935 7.323964 8.447249
8.903971 5.429932 12.216873
7.882203 1.984705 12.756297
8.714479 8.009573 12.335240
9.920059 12.966762 12.636714
7.955947 0.801004 12.708636
8.829953 6.613646 12.263841
7.880058 3.394755 12.765520
8.906431 4.019906 12.208101
16.671954 13.324716 12.821402
13.267082 7.950371 12.024948
14.605556 7.612261 11.850817
15.588143 8.575982 12.033517
15.233963 9.905226 12.343341
13.848535 10.210436 12.452196
16.193960 10.946935 12.499481
15.748788 12.280993 12.690450
14.386835 12.563962 12.739928
13.454111 11.545100 12.623214
17.586231 10.724603 12.478419
18.028994 13.040343 12.778968
7.005207 8.153494 2.265445
6.499719 8.741502 8.282652
5.750490 11.761926 12.617136
12.911213 9.214233 12.343348
12.176896 9.420714 9.202852
2.343944 11.368591 1.050236
10.108569 10.002589 9.766715
4.412272 10.786715 0.486373
9.669957 8.714572 11.826372
8.964730 12.261915 13.145758
7.666377 8.519015 12.905871
10.968311 12.457471 12.066258
12.008499 10.850460 27.597347
14.945874 10.358335 26.791717
13.661813 8.022008 17.739950
8.300399 9.757053 22.174637
10.028184 10.375343 16.988554
12.644364 10.127314 22.719508
18.781760 11.396817 18.324880
16.535181 8.902718 21.398853
15.599964 8.273721 19.217231
19.373142 10.707437 20.606252
11.859297 8.200542 16.225723
10.784992 6.240506 17.346039
9.851937 6.967558 15.979840
9.387362 7.348849 17.673557
10.016619 9.248479 23.713787
11.179046 7.244746 24.205435
11.709761 7.109423 22.493567
9.962402 6.877744 22.920480
13.881676 3.609856 26.459824
11.197579 4.058552 27.927972
8.354952 0.401102 27.588139
18.644116 0.914630 27.665127
18.184361 13.709308 27.575510
20.754617 8.387742 26.593747
19.032890 6.731643 26.282142
9.464554 9.869949 27.078439
16.639729 7.340965 26.610291
16.574402 11.966535 27.342107
11.669619 8.665803 18.244851
10.334230 9.272951 21.657639
13.019129 8.415037 18.519939
9.023624 9.673508 21.371245
15.112275 9.807857 23.577822
7.686598 11.178593 16.093833
14.631505 9.524331 22.224351
8.018539 10.891083 17.490399
14.935169 8.630634 19.995032
7.401168 10.582402 19.811008
15.471245 9.009341 21.227476
7.071516 10.995753 18.518441
13.261105 9.630118 21.986410
9.275124 10.349710 17.761258
12.690540 9.144109 20.810281
9.580532 9.819320 19.014423
13.551420 8.721242 19.770974
8.661612 10.019804 20.070740
11.291909 9.195178 20.600635
10.834420 9.213327 19.266271
10.248146 7.150305 17.000978
10.885330 7.450836 23.154389
13.050366 5.556804 26.924013
12.028598 2.111577 27.463437
12.860874 8.136444 27.042380
14.066454 13.093633 27.343854
12.102342 0.927875 27.415776
12.976348 6.740517 26.970981
12.026454 3.521627 27.472660
13.052827 4.146778 26.915241
20.818349 13.451587 27.528542
17.413477 8.077243 26.732088
18.751951 7.739132 26.557957
19.734538 8.702853 26.740657
19.380358 10.032097 27.050481
17.994930 10.337308 27.159336
20.340355 11.073806 27.206621
19.895183 12.407864 27.397590
18.533230 12.690833 27.447068
17.600506 11.671971 27.330354
21.732626 10.851474 27.185559
22.175389 13.167214 27.486108
11.151602 8.280365 16.972585
10.646114 8.868373 22.989792
9.896885 11.888797 27.324276
17.057608 9.341105 27.050488
16.323291 9.547585 23.909992
6.490339 11.495463 15.757376
14.254964 10.129461 24.473855
8.558667 10.913586 15.193513
13.816352 8.841443 26.533512
13.111125 12.388787 27.852897
11.812772 8.645887 27.613011
15.114706 12.584342 26.773398
9.711183 24.285454 12.890207
12.648557 23.793328 12.084577
11.364496 21.457002 3.032810
6.003082 23.192047 7.467497
7.730868 23.810337 2.281414
10.347047 23.562308 8.012368
16.484443 24.831810 3.617740
14.237864 22.337712 6.691713
13.302647 21.708715 4.510091
17.075826 24.142430 5.899112
9.561980 21.635536 1.518583
8.487675 19.675500 2.638899
7.554620 20.402552 1.272700
7.090045 20.783843 2.966417
7.719303 22.683473 9.006647
8.881730 20.679739 9.498295
9.412445 20.544417 7.786427
7.665085 20.312738 8.213340
11.584359 17.044850 11.752684
8.900263 17.493546 13.220832
6.057636 13.836095 12.880999
16.346799 14.349624 12.957987
15.887045 27.144301 12.868370
18.457300 21.822736 11.886607
16.735573 20.166637 11.575002
7.167238 23.304943 12.371299
14.342413 20.775958 11.903151
14.277086 25.401528 12.634967
9.372303 22.100796 3.537711
8.036913 22.707945 6.950499
10.721813 21.850030 3.812799
6.726307 23.108502 6.664105
12.814959 23.242851 8.870682
5.389282 24.613587 1.386693
12.334188 22.959325 7.517211
5.721222 24.326077 2.783259
12.637853 22.065627 5.287892
5.103852 24.017395 5.103868
13.173928 22.444335 6.520336
4.774200 24.430747 3.811301
10.963789 23.065112 7.279270
6.977807 23.784704 3.054118
10.393223 22.579103 6.103141
7.283215 23.254313 4.307283
11.254103 22.156236 5.063834
6.364296 23.454798 5.363600
8.994592 22.630171 5.893495
8.537103 22.648320 4.559131
7.950830 20.585298 2.293838
8.588013 20.885829 8.447249
10.753050 18.991798 12.216873
9.731281 15.546570 12.756297
10.563558 21.571438 12.335240
11.769137 26.528627 12.636714
9.805025 14.362869 12.708636
10.679032 20.175511 12.263841
9.729137 16.956621 12.765520
10.755510 17.581772 12.208101
18.521033 26.886581 12.821402
15.116161 21.512237 12.024948
16.454635 21.174126 11.850817
17.437222 22.137847 12.033517
17.083041 23.467091 12.343341
15.697613 23.772301 12.452196
18.043039 24.508800 12.499481
17.597867 25.842858 12.690450
16.235913 26.125827 12.739928
15.303190 25.106965 12.623214
19.435309 24.286468 12.478419
19.878072 26.602208 12.778968
8.854286 21.715359 2.265445
8.348798 22.303367 8.282652
7.599568 25.323791 12.617136
14.760292 22.776098 12.343348
14.025975 22.982579 9.202852
4.193023 24.930456 1.050236
11.957647 23.564455 9.766715
6.261351 24.348580 0.486373
11.519036 22.276437 11.826372
10.813809 25.823781 13.145758
9.515455 22.080880 12.905871
12.817390 26.019336 12.066258
13.857578 24.412326 27.597347
16.794953 23.920200 26.791717
15.510891 21.583873 17.739950
10.149477 23.318919 22.174637
11.877263 23.937208 16.988554
14.493442 23.689179 22.719508
20.630838 24.958682 18.324880
18.384259 22.464583 21.398853
17.449042 21.835586 19.217231
21.222221 24.269302 20.606252
13.708375 21.762407 16.225723
12.634070 19.802371 17.346039
11.701015 20.529423 15.979840
11.236440 20.910714 17.673557
11.865698 22.810344 23.713787
13.028125 20.806611 24.205435
13.558840 20.671288 22.493567
11.811480 20.439610 22.920480
15.730754 17.171721 26.459824
13.046658 17.620417 27.927972
10.204031 13.962967 27.588139
20.493194 14.476495 27.665127
20.033440 27.271173 27.575510
22.603695 21.949607 26.593747
20.881968 20.293508 26.282142
11.313633 23.431814 27.078439
18.488808 20.902830 26.610291
18.423481 25.528400 27.342107
13.518698 22.227668 18.244851
12.183308 22.834816 21.657639
14.868208 21.976902 18.519939
10.872702 23.235373 21.371245
16.961354 23.369722 23.577822
9.535677 24.740459 16.093833
16.480583 23.086196 22.224351
9.867617 24.452948 17.490399
16.784248 22.192499 19.995032
9.250247 24.144267 19.811008
17.320323 22.571206 21.227476
8.920595 24.557618 18.518441
15.110184 23.191984 21.986410
11.124202 23.911575 17.761258
14.539619 22.705974 20.810281
11.429610 23.381185 19.014423
15.400498 22.283107 19.770974
10.510691 23.581669 20.070740
13.140987 22.757043 20.600635
12.683498 22.775192 19.266271
12.097225 20.712170 17.000978
12.734408 21.012701 23.154389
14.899445 19.118669 26.924013
13.877676 15.673442 27.463437
14.709953 21.698309 27.042380
15.915532 26.655498 27.343854
13.951421 14.489740 27.415776
14.825427 20.302382 26.970981
13.875532 17.083492 27.472660
14.901905 17.708643 26.915241
22.667428 27.013452 27.528542
19.262556 21.639108 26.732088
20.601030 21.300997 26.557957
21.583617 22.264718 26.740657
21.229436 23.593963 27.050481
19.844008 23.899173 27.159336
22.189434 24.635671 27.206621
21.744262 25.969729 27.397590
20.382309 26.252699 27.447068
19.449585 25.233836 27.330354
23.581704 24.413340 27.185559
24.024467 26.729079 27.486108
13.000681 21.842230 16.972585
12.495193 22.430239 22.989792
11.745963 25.450662 27.324276
18.906687 22.902970 27.050488
18.172370 23.109450 23.909992
8.339418 25.057328 15.757376
16.104042 23.691326 24.473855
10.407746 24.475451 15.193513
15.665431 22.403308 26.533512
14.960204 25.950652 27.852897
13.661851 22.207752 27.613011
16.963785 26.146207 26.773398
20.559424 10.723589 12.890207
23.496799 10.231463 12.084577
22.212738 7.895136 3.032810
16.851324 9.630182 7.467497
18.579109 10.248472 2.281414
21.195289 10.000443 8.012368
27.332685 11.269945 3.617740
25.086106 8.775846 6.691713
24.150889 8.146850 4.510091
27.924067 10.580565 5.899112
20.410222 8.073671 1.518583
19.335917 6.113635 2.638899
18.402861 6.840687 1.272700
17.938287 7.221978 2.966417
18.567544 9.121607 9.006647
19.729971 7.117874 9.498295
20.260686 6.982552 7.786427
18.513327 6.750873 8.213340
22.432601 3.482984 11.752684
19.748504 3.931681 13.220832
16.905877 0.274230 12.880999
27.195041 0.787759 12.957987
26.735286 13.582436 12.868370
29.305542 8.260871 11.886607
27.583815 6.604771 11.575002
18.015479 9.743078 12.371299
25.190654 7.214093 11.903151
25.125327 11.839663 12.634967
20.220544 8.538931 3.537711
18.885155 9.146080 6.950499
21.570054 8.288165 3.812799
17.574549 9.546637 6.664105
23.663200 9.680986 8.870682
16.237523 11.051722 1.386693
23.182430 9.397460 7.517211
16.569464 10.764211 2.783259
23.486094 8.503762 5.287892
15.952093 10.455530 5.103868
24.022169 8.882470 6.520336
15.622441 10.868882 3.811301
21.812030 9.503247 7.279270
17.826049 10.222839 3.054118
21.241465 9.017238 6.103141
18.131456 9.692448 4.307283
22.102344 8.594371 5.063834
17.212537 9.892933 5.363600
19.842834 9.068306 5.893495
19.385345 9.086455 4.559131
18.799071 7.023433 2.293838
19.436255 7.323964 8.447249
21.601291 5.429932 12.216873
20.579523 1.984705 12.756297
21.411799 8.009573 12.335240
22.617379 12.966762 12.636714
20.653267 0.801004 12.708636
21.527273 6.613646 12.263841
20.577378 3.394755 12.765520
21.603751 4.019906 12.208101
29.369274 13.324716 12.821402
25.964402 7.950371 12.024948
27.302876 7.612261 11.850817
28.285463 8.575982 12.033517
27.931283 9.905226 12.343341
26.545855 10.210436 12.452196
28.891280 10.946935 12.499481
28.446108 12.280993 12.690450
27.084155 12.563962 12.739928
26.151431 11.545100 12.623214
30.283551 10.724603 12.478419
30.726314 13.040343 12.778968
19.702527 8.153494 2.265445
19.197039 8.741502 8.282652
18.447810 11.761926 12.617136
25.608533 9.214233 12.343348
24.874216 9.420714 9.202852
15.041264 11.368591 1.050236
22.805889 10.002589 9.766715
17.109592 10.786715 0.486373
22.367277 8.714572 11.826372
21.662050 12.261915 13.145758
20.363697 8.519015 12.905871
23.665631 12.457471 12.066258
24.705819 10.850460 27.597347
27.643194 10.358335 26.791717
26.359133 8.022008 17.739950
20.997719 9.757053 22.174637
22.725504 10.375343 16.988554
25.341684 10.127314 22.719508
31.479080 11.396817 18.324880
29.232501 8.902718 21.398853
28.297284 8.273721 19.217231
32.070462 10.707437 20.606252
24.556617 8.200542 16.225723
23.482312 6.240506 17.346039
22.549257 6.967558 15.979840
22.084682 7.348849 17.673557
22.713939 9.248479 23.713787
23.876366 7.244746 24.205435
24.407081 7.109423 22.493567
22.659722 6.877744 22.920480
26.578996 3.609856 26.459824
23.894899 4.058552 27.927972
21.052272 0.401102 27.588139
31.341436 0.914630 27.665127
30.881681 13.709308 27.575510
33.451937 8.387742 26.593747
31.730210 6.731643 26.282142
22.161874 9.869949 27.078439
29.337049 7.340965 26.610291
29.271722 11.966535 27.342107
24.366939 8.665803 18.244851
23.031550 9.272951 21.657639
25.716449 8.415037 18.519939
21.720944 9.673508 21.371245
27.809595 9.807857 23.577822
20.383918 11.178593 16.093833
27.328825 9.524331 22.224351
20.715859 10.891083 17.490399
27.632489 8.630634 19.995032
20.098488 10.582402 19.811008
28.168565 9.009341 21.227476
19.768836 10.995753 18.518441
25.958425 9.630118 21.986410
21.972444 10.349710 17.761258
25.387860 9.144109 20.810281
22.277852 9.819320 19.014423
26.248740 8.721242 19.770974
21.358932 10.019804 20.070740
23.989229 9.195178 20.600635
23.531740 9.213327 19.266271
22.945466 7.150305 17.000978
23.582650 7.450836 23.154389
25.747686 5.556804 26.924013
24.725918 2.111577 27.463437
25.558194 8.136444 27.042380
26.763774 13.093633 27.343854
24.799662 0.927875 27.415776
25.673668 6.740517 26.970981
24.723774 3.521627 27.472660
25.750147 4.146778 26.915241
33.515669 13.451587 27.528542
30.110797 8.077243 26.732088
31.449271 7.739132 26.557957
32.431858 8.702853 26.740657
32.077678 10.032097 27.050481
30.692250 10.337308 27.159336
33.037675 11.073806 27.206621
32.592503 12.407864 27.397590
31.230550 12.690833 27.447068
30.297826 11.671971 27.330354
34.429946 10.851474 27.185559
34.872709 13.167214 27.486108
23.848922 8.280365 16.972585
23.343434 8.868373 22.989792
22.594205 11.888797 27.324276
29.754928 9.341105 27.050488
29.020611 9.547585 23.909992
19.187659 11.495463 15.757376
26.952284 10.129461 24.473855
21.255987 10.913586 15.193513
26.513672 8.841443 26.533512
25.808445 12.388787 27.852897
24.510092 8.645887 27.613011
27.812026 12.584342 26.773398
22.408503 24.285454 12.890207
25.345877 23.793328 12.084577
24.061816 21.457002 3.032810
18.700402 23.192047 7.467497
20.428188 23.810337 2.281414
23.044367 23.562308 8.012368
29.181763 24.831810 3.617740
26.935184 22.337712 6.691713
25.999967 21.708715 4.510091
29.773146 24.142430 5.899112
22.259300 21.635536 1.518583
21.184995 19.675500 2.638899
20.251940 20.402552 1.272700
19.787365 20.783843 2.966417
20.416623 22.683473 9.006647
21.579050 20.679739 9.498295
22.109765 20.544417 7.786427
20.362405 20.312738 8.213340
24.281679 17.044850 11.752684
21.597583 17.493546 13.220832
18.754956 13.836095 12.880999
29.044119 14.349624 12.957987
28.584365 27.144301 12.868370
31.154620 21.822736 11.886607
29.432893 20.166637 11.575002
19.864558 23.304943 12.371299
27.039733 20.775958 11.903151
26.974406 25.401528 12.634967
22.069623 22.100796 3.537711
20.734233 22.707945 6.950499
23.419133 21.850030 3.812799
19.423627 23.108502 6.664105
25.512279 23.242851 8.870682
18.086602 24.613587 1.386693
25.031508 22.959325 7.517211
18.418542 24.326077 2.783259
25.335173 22.065627 5.287892
17.801172 24.017395 5.103868
25.871248 22.444335 6.520336
17.471520 24.430747 3.811301
23.661109 23.065112 7.279270
19.675127 23.784704 3.054118
23.090543 22.579103 6.103141
19.980535 23.254313 4.307283
23.951423 22.156236 5.063834
19.061616 23.454798 5.363600
21.691912 22.630171 5.893495
21.234423 22.648320 4.559131
20.648150 20.585298 2.293838
21.285333 20.885829 8.447249
23.450370 18.991798 12.216873
22.428601 15.546570 12.756297
23.260878 21.571438 12.335240
24.466457 26.528627 12.636714
22.502345 14.362869 12.708636
23.376352 20.175511 12.263841
22.426457 16.956621 12.765520
23.452830 17.581772 12.208101
31.218353 26.886581 12.821402
27.813481 21.512237 12.024948
29.151955 21.174126 11.850817
30.134542 22.137847 12.033517
29.780361 23.467091 12.343341
28.394933 23.772301 12.452196
30.740359 24.508800 12.499481
30.295187 25.842858 12.690450
28.933233 26.125827 12.739928
28.000510 25.106965 12.623214
32.132629 24.286468 12.478419
32.575392 26.602208 12.778968
21.551606 21.715359 2.265445
21.046118 22.303367 8.282652
20.296888 25.323791 12.617136
27.457612 22.776098 12.343348
26.723295 22.982579 9.202852
16.890343 24.930456 1.050236
24.654967 23.564455 9.766715
18.958671 24.348580 0.486373
24.216356 22.276437 11.826372
23.511129 25.823781 13.145758
22.212775 22.080880 12.905871
25.514710 26.019336 12.066258
26.554898 24.412326 27.597347
29.492273 23.920200 26.791717
28.208211 21.583873 17.739950
22.846797 23.318919 22.174637
24.574583 23.937208 16.988554
27.190762 23.689179 22.719508
33.328158 24.958682 18.324880
31.081579 22.464583 21.398853
30.146362 21.835586 19.217231
33.919541 24.269302 20.606252
26.405695 21.762407 16.225723
25.331390 19.802371 17.346039
24.398335 20.529423 15.979840
23.933760 20.910714 17.673557
24.563018 22.810344 23.713787
25.725445 20.806611 24.205435
26.256160 20.671288 22.493567
24.508800 20.439610 22.920480
28.428074 17.171721 26.459824
25.743978 17.620417 27.927972
22.901351 13.962967 27.588139
33.190514 14.476495 27.665127
32.730760 27.271173 27.575510
35.301015 21.949607 26.593747
33.579288 20.293508 26.282142
24.010953 23.431814 27.078439
31.186128 20.902830 26.610291
31.120801 25.528400 27.342107
26.216018 22.227668 18.244851
24.880628 22.834816 21.657639
27.565528 21.976902 18.519939
23.570022 23.235373 21.371245
29.658674 23.369722 23.577822
22.232997 24.740459 16.093833
29.177903 23.086196 22.224351
22.564937 24.452948 17.490399
29.481568 22.192499 19.995032
21.947567 24.144267 19.811008
30.017643 22.571206 21.227476
21.617915 24.557618 18.518441
27.807504 23.191984 21.986410
23.821522 23.911575 17.761258
27.236939 22.705974 20.810281
24.126930 23.381185 19.014423
28.097818 22.283107 19.770974
23.208011 23.581669 20.070740
25.838307 22.757043 20.600635
25.380818 22.775192 19.266271
24.794545 20.712170 17.000978
25.431728 21.012701 23.154389
27.596765 19.118669 26.924013
26.574996 15.673442 27.463437
27.407273 21.698309 27.042380
28.612852 26.655498 27.343854
26.648741 14.489740 27.415776
27.522747 20.302382 26.970981
26.572852 17.083492 27.472660
27.599225 17.708643 26.915241
35.364748 27.013452 27.528542
31.959876 21.639108 26.732088
33.298350 21.300997 26.557957
34.280937 22.264718 26.740657
33.926756 23.593963 27.050481
32.541328 23.899173 27.159336
34.886754 24.635671 27.206621
34.441582 25.969729 27.397590
33.079629 26.252699 27.447068
32.146905 25.233836 27.330354
36.279024 24.413340 27.185559
36.721787 26.729079 27.486108
25.698001 21.842230 16.972585
25.192513 22.430239 22.989792
24.443283 25.450662 27.324276
31.604007 22.902970 27.050488
30.869690 23.109450 23.909992
21.036738 25.057328 15.757376
28.801362 23.691326 24.473855
23.105066 24.475451 15.193513
28.362751 22.403308 26.533512
27.657524 25.950652 27.852897
26.359171 22.207752 27.613011
29.661105 26.146207 26.773398
POINT_DATA 656
SCALARS my_scalars float
LOOKUP_TABLE default
1.39
1.39
1.09
1.09
1.09
1.09
1.09
1.09
1.09
1.09
1.09
1.09
1.09
1.09
1.09
1.09
1.09
1.09
1.09
1.09
1.09
1.09
1.09
1.09
1.09
1.09
1.09
1.09
1.7
1.7
1.7
1.7
1.7
1.7
1.7
1.7
1.7
1.7
1.7
1.7
1.7
1.7
1.7
1.7
1.7
1.7
1.7
1.7
1.7
1.7
1.7
1.7
1.7
1.7
1.7
1.7
1.7
1.7
1.7
1.7
1.7
1.7
1.7
1.7
1.7
1.7
1.7
1.7
1.7
1.7
1.55
1.55
1.55
1.55
1.52
1.52
1.52
1.52
1.52
1.52
1.52
1.52
1.39
1.39
1.09
1.09
1.09
1.09
1.09
1.09
1.09
1.09
1.09
1.09
1.09
1.09
1.09
1.09
1.09
1.09
1.09
1.09
1.09
1.09
1.09
1.09
1.09
1.09
1.09
1.09
1.7
1.7
1.7
1.7
1.7
1.7
1.7
1.7
1.7
1.7
1.7
1.7
1.7
1.7
1.7
1.7
1.7
1.7
1.7
1.7
1.7
1.7
1.7
1.7
1.7
1.7
1.7
1.7
1.7
1.7
1.7
1.7
1.7
1.7
1.7
1.7
1.7
1.7
1.7
1.7
1.7
1.7
1.55
1.55
1.55
1.55
1.52
1.52
1.52
1.52
1.52
1.52
1.52
1.52
1.39
1.39
1.09
1.09
1.09
1.09
1.09
1.09
1.09
1.09
1.09
1.09
1.09
1.09
1.09
1.09
1.09
1.09
1.09
1.09
1.09
1.09
1.09
1.09
1.09
1.09
1.09
1.09
1.7
1.7
1.7
1.7
1.7
1.7
1.7
1.7
1.7
1.7
1.7
1.7
1.7
1.7
1.7
1.7
1.7
1.7
1.7
1.7
1.7
1.7
1.7
1.7
1.7
1.7
1.7
1.7
1.7
1.7
1.7
1.7
1.7
1.7
1.7
1.7
1.7
1.7
1.7
1.7
1.7
1.7
1.55
1.55
1.55
1.55
1.52
1.52
1.52
1.52
1.52
1.52
1.52
1.52
1.39
1.39
1.09
1.09
1.09
1.09
1.09
1.09
1.09
1.09
1.09
1.09
1.09
1.09
1.09
1.09
1.09
1.09
1.09
1.09
1.09
1.09
1.09
1.09
1.09
1.09
1.09
1.09
1.7
1.7
1.7
1.7
1.7
1.7
1.7
1.7
1.7
1.7
1.7
1.7
1.7
1.7
1.7
1.7
1.7
1.7
1.7
1.7
1.7
1.7
1.7
1.7
1.7
1.7
1.7
1.7
1.7
1.7
1.7
1.7
1.7
1.7
1.7
1.7
1.7
1.7
1.7
1.7
1.7
1.7
1.55
1.55
1.55
1.55
1.52
1.52
1.52
1.52
1.52
1.52
1.52
1.52
1.39
1.39
1.09
1.09
1.09
1.09
1.09
1.09
1.09
1.09
1.09
1.09
1.09
1.09
1.09
1.09
1.09
1.09
1.09
1.09
1.09
1.09
1.09
1.09
1.09
1.09
1.09
1.09
1.7
1.7
1.7
1.7
1.7
1.7
1.7
1.7
1.7
1.7
1.7
1.7
1.7
1.7
1.7
1.7
1.7
1.7
1.7
1.7
1.7
1.7
1.7
1.7
1.7
1.7
1.7
1.7
1.7
1.7
1.7
1.7
1.7
1.7
1.7
1.7
1.7
1.7
1.7
1.7
1.7
1.7
1.55
1.55
1.55
1.55
1.52
1.52
1.52
1.52
1.52
1.52
1.52
1.52
1.39
1.39
1.09
1.09
1.09
1.09
1.09
1.09
1.09
1.09
1.09
1.09
1.09
1.09
1.09
1.09
1.09
1.09
1.09
1.09
1.09
1.09
1.09
1.09
1.09
1.09
1.09
1.09
1.7
1.7
1.7
1.7
1.7
1.7
1.7
1.7
1.7
1.7
1.7
1.7
1.7
1.7
1.7
1.7
1.7
1.7
1.7
1.7
1.7
1.7
1.7
1.7
1.7
1.7
1.7
1.7
1.7
1.7
1.7
1.7
1.7
1.7
1.7
1.7
1.7
1.7
1.7
1.7
1.7
1.7
1.55
1.55
1.55
1.55
1.52
1.52
1.52
1.52
1.52
1.52
1.52
1.52
1.39
1.39
1.09
1.09
1.09
1.09
1.09
1.09
1.09
1.09
1.09
1.09
1.09
1.09
1.09
1.09
1.09
1.09
1.09
1.09
1.09
1.09
1.09
1.09
1.09
1.09
1.09
1.09
1.7
1.7
1.7
1.7
1.7
1.7
1.7
1.7
1.7
1.7
1.7
1.7
1.7
1.7
1.7
1.7
1.7
1.7
1.7
1.7
1.7
1.7
1.7
1.7
1.7
1.7
1.7
1.7
1.7
1.7
1.7
1.7
1.7
1.7
1.7
1.7
1.7
1.7
1.7
1.7
1.7
1.7
1.55
1.55
1.55
1.55
1.52
1.52
1.52
1.52
1.52
1.52
1.52
1.52
1.39
1.39
1.09
1.09
1.09
1.09
1.09
1.09
1.09
1.09
1.09
1.09
1.09
1.09
1.09
1.09
1.09
1.09
1.09
1.09
1.09
1.09
1.09
1.09
1.09
1.09
1.09
1.09
1.7
1.7
1.7
1.7
1.7
1.7
1.7
1.7
1.7
1.7
1.7
1.7
1.7
1.7
1.7
1.7
1.7
1.7
1.7
1.7
1.7
1.7
1.7
1.7
1.7
1.7
1.7
1.7
1.7
1.7
1.7
1.7
1.7
1.7
1.7
1.7
1.7
1.7
1.7
1.7
1.7
1.7
1.55
1.55
1.55
1.55
1.52
1.52
1.52
1.52
1.52
1.52
1.52
1.52
VECTORS vectors float
0.4375 0 0
0.4375 0 0
0.25 0 0
0.25 0 0
0.25 0 0
0.25 0 0
0.25 0 0
0.25 0 0
0.25 0 0
0.25 0 0
0.25 0 0
0.25 0 0
0.25 0 0
0.25 0 0
0.25 0 0
0.25 0 0
0.25 0 0
0.25 0 0
0.25 0 0
0.25 0 0
0.25 0 0
0.25 0 0
0.25 0 0
0.25 0 0
0.25 0 0
0.25 0 0
0.25 0 0
0.25 0 0
0.3125 0 0
0.3125 0 0
0.3125 0 0
0.3125 0 0
0.3125 0 0
0.3125 0 0
0.3125 0 0
0.3125 0 0
0.3125 0 0
0.3125 0 0
0.3125 0 0
0.3125 0 0
0.3125 0 0
0.3125 0 0
0.3125 0 0
0.3125 0 0
0.3125 0 0
0.3125 0 0
0.3125 0 0
0.3125 0 0
0.3125 0 0
0.3125 0 0
0.3125 0 0
0.3125 0 0
0.3125 0 0
0.3125 0 0
0.3125 0 0
0.3125 0 0
0.3125 0 0
0.3125 0 0
0.3125 0 0
0.3125 0 0
0.3125 0 0
0.3125 0 0
0.3125 0 0
0.3125 0 0
0.3125 0 0
0.3125 0 0
0.3125 0 0
0.3125 0 0
0.3125 0 0
0.3125 0 0
0 0 0
0 0 0
0 0 0
0 0 0
0.03125 0 0
0.03125 0 0
0.03125 0 0
0.03125 0 0
0.03125 0 0
0.03125 0 0
0.03125 0 0
0.03125 0 0
0.4375 0 0
0.4375 0 0
0.25 0 0
0.25 0 0
0.25 0 0
0.25 0 0
0.25 0 0
0.25 0 0
0.25 0 0
0.25 0 0
0.25 0 0
0.25 0 0
0.25 0 0
0.25 0 0
0.25 0 0
0.25 0 0
0.25 0 0
0.25 0 0
0.25 0 0
0.25 0 0
0.25 0 0
0.25 0 0
0.25 0 0
0.25 0 0
0.25 0 0
0.25 0 0
0.25 0 0
0.25 0 0
0.3125 0 0
0.3125 0 0
0.3125 0 0
0.3125 0 0
0.3125 0 0
0.3125 0 0
0.3125 0 0
0.3125 0 0
0.3125 0 0
0.3125 0 0
0.3125 0 0
0.3125 0 0
0.3125 0 0
0.3125 0 0
0.3125 0 0
0.3125 0 0
0.3125 0 0
0.3125 0 0
0.3125 0 0
0.3125 0 0
0.3125 0 0
0.3125 0 0
0.3125 0 0
0.3125 0 0
0.3125 0 0
0.3125 0 0
0.3125 0 0
0.3125 0 0
0.3125 0 0
0.3125 0 0
0.3125 0 0
0.3125 0 0
0.3125 0 0
0.3125 0 0
0.3125 0 0
0.3125 0 0
0.3125 0 0
0.3125 0 0
0.3125 0 0
0.3125 0 0
0.3125 0 0
0.3125 0 0
0 0 0
0 0 0
0 0 0
0 0 0
0.03125 0 0
0.03125 0 0
0.03125 0 0
0.03125 0 0
0.03125 0 0
0.03125 0 0
0.03125 0 0
0.03125 0 0
0.4375 0 0
0.4375 0 0
0.25 0 0
0.25 0 0
0.25 0 0
0.25 0 0
0.25 0 0
0.25 0 0
0.25 0 0
0.25 0 0
0.25 0 0
0.25 0 0
0.25 0 0
0.25 0 0
0.25 0 0
0.25 0 0
0.25 0 0
0.25 0 0
0.25 0 0
0.25 0 0
0.25 0 0
0.25 0 0
0.25 0 0
0.25 0 0
0.25 0 0
0.25 0 0
0.25 0 0
0.25 0 0
0.3125 0 0
0.3125 0 0
0.3125 0 0
0.3125 0 0
0.3125 0 0
0.3125 0 0
0.3125 0 0
0.3125 0 0
0.3125 0 0
0.3125 0 0
0.3125 0 0
0.3125 0 0
0.3125 0 0
0.3125 0 0
0.3125 0 0
0.3125 0 0
0.3125 0 0
0.3125 0 0
0.3125 0 0
0.3125 0 0
0.3125 0 0
0.3125 0 0
0.3125 0 0
0.3125 0 0
0.3125 0 0
0.3125 0 0
0.3125 0 0
0.3125 0 0
0.3125 0 0
0.3125 0 0
0.3125 0 0
0.3125 0 0
0.3125 0 0
0.3125 0 0
0.3125 0 0
0.3125 0 0
0.3125 0 0
0.3125 0 0
0.3125 0 0
0.3125 0 0
0.3125 0 0
0.3125 0 0
0 0 0
0 0 0
0 0 0
0 0 0
0.03125 0 0
0.03125 0 0
0.03125 0 0
0.03125 0 0
0.03125 0 0
0.03125 0 0
0.03125 0 0
0.03125 0 0
0.4375 0 0
0.4375 0 0
0.25 0 0
0.25 0 0
0.25 0 0
0.25 0 0
0.25 0 0
0.25 0 0
0.25 0 0
0.25 0 0
0.25 0 0
0.25 0 0
0.25 0 0
0.25 0 0
0.25 0 0
0.25 0 0
0.25 0 0
0.25 0 0
0.25 0 0
0.25 0 0
0.25 0 0
0.25 0 0
0.25 0 0
0.25 0 0
0.25 0 0
0.25 0 0
0.25 0 0
0.25 0 0
0.3125 0 0
0.3125 0 0
0.3125 0 0
0.3125 0 0
0.3125 0 0
0.3125 0 0
0.3125 0 0
0.3125 0 0
0.3125 0 0
0.3125 0 0
0.3125 0 0
0.3125 0 0
0.3125 0 0
0.3125 0 0
0.3125 0 0
0.3125 0 0
0.3125 0 0
0.3125 0 0
0.3125 0 0
0.3125 0 0
0.3125 0 0
0.3125 0 0
0.3125 0 0
0.3125 0 0
0.3125 0 0
0.3125 0 0
0.3125 0 0
0.3125 0 0
0.3125 0 0
0.3125 0 0
0.3125 0 0
0.3125 0 0
0.3125 0 0
0.3125 0 0
0.3125 0 0
0.3125 0 0
0.3125 0 0
0.3125 0 0
0.3125 0 0
0.3125 0 0
0.3125 0 0
0.3125 0 0
0 0 0
0 0 0
0 0 0
0 0 0
0.03125 0 0
0.03125 0 0
0.03125 0 0
0.03125 0 0
0.03125 0 0
0.03125 0 0
0.03125 0 0
0.03125 0 0
0.4375 0 0
0.4375 0 0
0.25 0 0
0.25 0 0
0.25 0 0
0.25 0 0
0.25 0 0
0.25 0 0
0.25 0 0
0.25 0 0
0.25 0 0
0.25 0 0
0.25 0 0
0.25 0 0
0.25 0 0
0.25 0 0
0.25 0 0
0.25 0 0
0.25 0 0
0.25 0 0
0.25 0 0
0.25 0 0
0.25 0 0
0.25 0 0
0.25 0 0
0.25 0 0
0.25 0 0
0.25 0 0
0.3125 0 0
0.3125 0 0
0.3125 0 0
0.3125 0 0
0.3125 0 0
0.3125 0 0
0.3125 0 0
0.3125 0 0
0.3125 0 0
0.3125 0 0
0.3125 0 0
0.3125 0 0
0.3125 0 0
0.3125 0 0
0.3125 0 0
0.3125 0 0
0.3125 0 0
0.3125 0 0
0.3125 0 0
0.3125 0 0
0.3125 0 0
0.3125 0 0
0.3125 0 0
0.3125 0 0
0.3125 0 0
0.3125 0 0
0.3125 0 0
0.3125 0 0
0.3125 0 0
0.3125 0 0
0.3125 0 0
0.3125 0 0
0.3125 0 0
0.3125 0 0
0.3125 0 0
0.3125 0 0
0.3125 0 0
0.3125 0 0
0.3125 0 0
0.3125 0 0
0.3125 0 0
0.3125 0 0
0 0 0
0 0 0
0 0 0
0 0 0
0.03125 0 0
0.03125 0 0
0.03125 0 0
0.03125 0 0
0.03125 0 0
0.03125 0 0
0.03125 0 0
0.03125 0 0
0.4375 0 0
0.4375 0 0
0.25 0 0
0.25 0 0
0.25 0 0
0.25 0 0
0.25 0 0
0.25 0 0
0.25 0 0
0.25 0 0
0.25 0 0
0.25 0 0
0.25 0 0
0.25 0 0
0.25 0 0
0.25 0 0
0.25 0 0
0.25 0 0
0.25 0 0
0.25 0 0
0.25 0 0
0.25 0 0
0.25 0 0
0.25 0 0
0.25 0 0
0.25 0 0
0.25 0 0
0.25 0 0
0.3125 0 0
0.3125 0 0
0.3125 0 0
0.3125 0 0
0.3125 0 0
0.3125 0 0
0.3125 0 0
0.3125 0 0
0.3125 0 0
0.3125 0 0
0.3125 0 0
0.3125 0 0
0.3125 0 0
0.3125 0 0
0.3125 0 0
0.3125 0 0
0.3125 0 0
0.3125 0 0
0.3125 0 0
0.3125 0 0
0.3125 0 0
0.3125 0 0
0.3125 0 0
0.3125 0 0
0.3125 0 0
0.3125 0 0
0.3125 0 0
0.3125 0 0
0.3125 0 0
0.3125 0 0
0.3125 0 0
0.3125 0 0
0.3125 0 0
0.3125 0 0
0.3125 0 0
0.3125 0 0
0.3125 0 0
0.3125 0 0
0.3125 0 0
0.3125 0 0
0.3125 0 0
0.3125 0 0
0 0 0
0 0 0
0 0 0
0 0 0
0.03125 0 0
0.03125 0 0
0.03125 0 0
0.03125 0 0
0.03125 0 0
0.03125 0 0
0.03125 0 0
0.03125 0 0
0.4375 0 0
0.4375 0 0
0.25 0 0
0.25 0 0
0.25 0 0
0.25 0 0
0.25 0 0
0.25 0 0
0.25 0 0
0.25 0 0
0.25 0 0
0.25 0 0
0.25 0 0
0.25 0 0
0.25 0 0
0.25 0 0
0.25 0 0
0.25 0 0
0.25 0 0
0.25 0 0
0.25 0 0
0.25 0 0
0.25 0 0
0.25 0 0
0.25 0 0
0.25 0 0
0.25 0 0
0.25 0 0
0.3125 0 0
0.3125 0 0
0.3125 0 0
0.3125 0 0
0.3125 0 0
0.3125 0 0
0.3125 0 0
0.3125 0 0
0.3125 0 0
0.3125 0 0
0.3125 0 0
0.3125 0 0
0.3125 0 0
0.3125 0 0
0.3125 0 0
0.3125 0 0
0.3125 0 0
0.3125 0 0
0.3125 0 0
0.3125 0 0
0.3125 0 0
0.3125 0 0
0.3125 0 0
0.3125 0 0
0.3125 0 0
0.3125 0 0
0.3125 0 0
0.3125 0 0
0.3125 0 0
0.3125 0 0
0.3125 0 0
0.3125 0 0
0.3125 0 0
0.3125 0 0
0.3125 0 0
0.3125 0 0
0.3125 0 0
0.3125 0 0
0.3125 0 0
0.3125 0 0
0.3125 0 0
0.3125 0 0
0 0 0
0 0 0
0 0 0
0 0 0
0.03125 0 0
0.03125 0 0
0.03125 0 0
0.03125 0 0
0.03125 0 0
0.03125 0 0
0.03125 0 0
0.03125 0 0
0.4375 0 0
0.4375 0 0
0.25 0 0
0.25 0 0
0.25 0 0
0.25 0 0
0.25 0 0
0.25 0 0
0.25 0 0
0.25 0 0
0.25 0 0
0.25 0 0
0.25 0 0
0.25 0 0
0.25 0 0
0.25 0 0
0.25 0 0
0.25 0 0
0.25 0 0
0.25 0 0
0.25 0 0
0.25 0 0
0.25 0 0
0.25 0 0
0.25 0 0
0.25 0 0
0.25 0 0
0.25 0 0
0.3125 0 0
0.3125 0 0
0.3125 0 0
0.3125 0 0
0.3125 0 0
0.3125 0 0
0.3125 0 0
0.3125 0 0
0.3125 0 0
0.3125 0 0
0.3125 0 0
0.3125 0 0
0.3125 0 0
0.3125 0 0
0.3125 0 0
0.3125 0 0
0.3125 0 0
0.3125 0 0
0.3125 0 0
0.3125 0 0
0.3125 0 0
0.3125 0 0
0.3125 0 0
0.3125 0 0
0.3125 0 0
0.3125 0 0
0.3125 0 0
0.3125 0 0
0.3125 0 0
0.3125 0 0
0.3125 0 0
0.3125 0 0
0.3125 0 0
0.3125 0 0
0.3125 0 0
0.3125 0 0
0.3125 0 0
0.3125 0 0
0.3125 0 0
0.3125 0 0
0.3125 0 0
0.3125 0 0
0 0 0
0 0 0
0 0 0
0 0 0
0.03125 0 0
0.03125 0 0
0.03125 0 0
0.03125 0 0
0.03125 0 0
0.03125 0 0
0.03125 0 0
0.03125 0 0
