Compiler and run-time data
===========================================================================
RASPA 2.0.50
Compiled as a 64-bits application
Compiler: gcc 11.4.0
Compile Date = Jan 20 2026, Compile Time = 16:15:37

Thu Feb  5 20:36:00 2026
Simulation started on Thursday, February 05.
The start time was 08:36 PM.

Hostname:    mof-sample
OS type:     Linux on x86_64
OS release:  6.8.0-1045-gcp
OS version:  #48~22.04.1-Ubuntu SMP Tue Nov 25 13:07:56 UTC 2025

Simulation
===========================================================================
Dimensions: 3
Random number seed: 1770323760
RASPA directory set to: /home/sibivarshan_m7/gcmc_tools/raspa_install
String appended to output-files: 
Number of cycles: 2000
Number of initializing cycles: 0
Number of equilibration cycles: 2000
Print every: 1000
Triclinic boundary condition applied
Timestep: 0.000500
	Degrees of freedom:                        0
	Translational Degrees of freedom:          0
	Rotational Degrees of freedom:             0
	Degrees of freedom Framework:              0


Mutual consistent basic set of units:
======================================
Unit of temperature: Kelvin
Unit of length:      1e-10 [m]
Unit of time:        1e-12 [s]
Unit of mass:        1.66054e-27 [kg]
Unit of charge:      1.60218e-19 [C/particle]

Derived units and their conversion factors:
===========================================
Unit of energy:              1.66054e-23 [J]
Unit of force:               1.66054e-13 [N]
Unit of pressure:            1.66054e+07 [Pa]
Unit of velocity:            100 [m/s]
Unit of acceleration:        1e-08 [m^2/s]
Unit of diffusion:           1e-08 [m^2/s]
Unit of dipole moment:       1.60218e-29 [C.m]
Unit of electric potential:  0.000103643 [V]
Unit of electric field:      1.03643e+06 [V]
Unit of polarizability:      1.54587e-35 [-]
Unit of Coulomb potential:   167101.0800066561  [K]
Unit of dielectric constant: 0.0000154587       [s^2 C^2/(kg m^3)]
Unit of wave vectors:        5.3088374589       [cm^1]
Boltzmann constant:          0.8314464919       [-]

Internal conversion factors:
===========================================
Energy to Kelvin:                                    1.2027242847
FH correction factor                                 2.0211930949
Heat capacity conversion factor:                    10.0000088723
From Debye to internal units:                        4.8032067991
Isothermal compressibility conversion factor:        0.0000000602

Energy conversion factors:
===========================================
From mdyne/A to kcal/mol/A^2:           143.933
From mdyne/A to kj/mol/A^2:             602.214
From mdyne/A to K/A^2:                  72429.7
From mdyne A/rad^2 to kcal/mol/deg^2:   0.0438444


Properties computed
===========================================================================
Movies: no
Radial Distribution Function: no
Number of molecules GCMC histogram: no
Histogram of the molecule positions: no
Free energy profiles: no
Pore Size Distribution Function: no
End-to-end distance: no
Histogram of the energy of the system: no
Compute thermodynamic factors: no
Framework spacing histograms: no
Residence times histograms: no
Distance histograms: no
Bend Angle histograms: no
Dihedral angle histograms: no
Angle between planes histograms: no
Molecule properties: no
Infra-red spectra: no
Mean-squared displacement using modified order-N algorithm: no
Velocity-autocorrelation function modified order-N algorithm: no
Rotational velocity-autocorrelation function modified order-N algorithm: no
Molecular orientation-autocorrelation function modified order-N algorithm: no
Bond orientation-autocorrelation function modified order-N algorithm: no
Mean-squared displacement (conventional algorithm): no
Velocity-autocorrelation function (conventional algorithm): no
3D density grid for adsorbates: no
Compute cation an/or adsorption sites: no
dcTST snapshots: no
Compute pressure and stress: no


VTK
===========================================================================
VTK fractional-range position framework atoms: [-0.001000,1.001000] [-0.001000,1.001000] [-0.001000,1.001000]
VTK fractional-range position framework bonds: [-0.151000,1.151000] [-0.151000,1.151000] [-0.151000,1.151000]
VTK fractional-range com-position adsorbate molecules: [-0.101000,1.101000] [-0.101000,1.101000] [-0.101000,1.101000]
VTK fractional-range com-position cation molecules: [-0.101000,1.101000] [-0.101000,1.101000] [-0.101000,1.101000]
	3D free energy grid made for the full simulation-cell


Thermo/Baro-stat NHC parameters
===========================================================================
External temperature: 298 [K]
Beta: 0.00403598 [energy unit]
External Pressure: 101325 [Pa]


Thermostat chain-length: 3
Timescale parameter for thermostat: 0.150000 [ps]
Barostat chain-length:   3
Timescale parameter for barostat:   0.150000 [ps]

Number of Yoshida-Suzuki decomposition steps: 5
Number of respa steps: 5


Method and settings for electrostatics
===============================================================================
Dielectric constant of the medium : 1.000000
Charge from charge-equilibration: no
Ewald summation is used (exact solution of a periodic system)
Relative precision                : 1e-06
Alpha convergence parameter       : 0.265058
kvec (x,y,z)                      : 7 9 8


CFC-RXMC parameters
===========================================================================
Number of reactions: 0


Rattle parameters
===========================================================================
Distance constraint type: r^2-r^2_0
Bend angle constraint type: theta-theta_0
Dihedral angle constraint type: phi-phi_0
Inversion-bend angle constraint type: chi-chi_0
Out-of-plane distance constraint type: r-r_0


Spectra parameters
===========================================================================
Compute normal modes: no


Minimization parameters
===========================================================================
Generalized coordinates are: Cartesian center-of-mass, elements of the orientational matrix p1,p2,p3 and strain
Potential derivatives are evaluated: analytically
Translation of the system is removed from the generalized Hessian: no
Rotation of the system is removed from the generalized Hessian: no
Maximum step-length: 0.3
Convergence factor: 1
Maximum number of minimization steps: 10000
Use gradients in the line-minimizations: yes
RMS gradient tolerance: 1e-06
Maximum gradient tolerance: 1e-06

Distance constraints: 0
Angle constraints: 0
Dihedral constraints: 0

Improper dihedral constraints: 0

Inversion-bend constraints: 0

Out-of-plane constraints: 0

Harmonic distance constraints: 0
Harmonic angle constraints: 0
Harmonic dihedral constraints: 0

Dihedral mid-point measurements: 0

All framework atoms are fixed

Fixed adsorbate atoms:  
Fixed adsorbate groups (center-of-mass):  
Fixed adsorbate groups (orientation):  

Fixed cation atoms:  
Fixed cation groups (center-of-mass):  
Fixed cation groups (orientation):  


dcTST parameters
===========================================================================
Free energy profiles computed: no
Free energy profiles written every 5000 cycles
Free energy mapping: mapped to a,b,c-coordinates
BarrierPosition:       0.0000000000       0.0000000000       0.0000000000
BarrierNormal:         0.0000000000       0.0000000000       0.0000000000
Start with a molecule on top of the barrier: no
Maximum distance to barrier (e.g. distance to minumum free energy):       0.0000000000 [A]
Maximum trajectory time:      10.0000000000 [ps]
Each configuration is used with 5 different initial velocities


Cbmc parameters
===========================================================================
Biasing method: using only the VDW part
Number of trial positions:                                       10
Number of trial positions (reinsertion):                         10
Number of trial positions (partial reinsertion):                 10
Number of trial positions (identity-change):                     10
Number of trial positions (Gibbs particle transfer):             10
Number of trial positions (insertion/deletion):                  10
Number of trial positions (Widom insertion):                     10
Number of trial positions coupled Torsion-selection:             100
Number of trial positions first bead:                            10
Number of trial positions first bead (reinsertion):              10
Number of trial positions first bead (partial reinsertion):      10
Number of trial positions first bead (identity-change):          10
Number of trial positions first bead (Gibbs particle transfer):  10
Number of trial positions first bead (insertion/deletion):       10
Number of trial positions first bead (Widom insertion):          10
Number of trial moves per open bead:                             150
Target acceptance ratio small-mc scheme:                         0.400000
Energy overlap criteria:                                         1e+07
Minimal Rosenbluth factor:                                       1e-150


Pseudo atoms: 85
===========================================================================
Pseudo Atom[   0] Name UNIT     Oxidation:          Element: H    pdb-name: H    Scat. Types:   1   1 Mass=1.000000000  B-factor:0.000   
                 Charge=1.000000000          Polarization=0.000000000  [A^3] (considered a charged atom and no polarization)  Interactions: yes
                 Anisotropic factor:    0.000 [-] (Absolute), Radius:    1.000 [A], Framework-atom:  no
Pseudo Atom[   1] Name He       Oxidation: +0       Element: He   pdb-name: He   Scat. Types:   3   2 Mass=4.002602000  B-factor:1.000   
                 Charge=0.000000000          Polarization=0.000000000  [A^3] (considered a chargeless atom and no polarization)  Interactions: yes
                 Anisotropic factor:    0.000 [-] (Relative), Radius:    1.000 [A], Framework-atom:  no
Pseudo Atom[   2] Name Ar       Oxidation: +0       Element: Ar   pdb-name: Ar   Scat. Types:  19  18 Mass=39.948000000 B-factor:1.000   
                 Charge=0.000000000          Polarization=0.000000000  [A^3] (considered a chargeless atom and no polarization)  Interactions: yes
                 Anisotropic factor:    0.000 [-] (Relative), Radius:    0.700 [A], Framework-atom:  no
Pseudo Atom[   3] Name CH4      Oxidation: +0       Element: C    pdb-name: C    Scat. Types:   7   6 Mass=16.042460000 B-factor:1.000   
                 Charge=0.000000000          Polarization=0.000000000  [A^3] (considered a chargeless atom and no polarization)  Interactions: yes
                 Anisotropic factor:    0.000 [-] (Relative), Radius:    1.000 [A], Framework-atom:  no
Pseudo Atom[   4] Name C_co2    Oxidation: +0       Element: C    pdb-name: C    Scat. Types:   7   6 Mass=12.000000000 B-factor:1.000   
                 Charge=0.651200000          Polarization=0.000000000  [A^3] (considered a charged atom and no polarization)  Interactions: yes
                 Anisotropic factor:    0.000 [-] (Relative), Radius:    0.720 [A], Framework-atom:  no
Pseudo Atom[   5] Name O_co2    Oxidation: +0       Element: O    pdb-name: O    Scat. Types:   9   8 Mass=15.999400000 B-factor:1.000   
                 Charge=-0.325600000         Polarization=0.000000000  [A^3] (considered a charged atom and no polarization)  Interactions: yes
                 Anisotropic factor:    0.000 [-] (Relative), Radius:    0.680 [A], Framework-atom:  no
Pseudo Atom[   6] Name N_n2     Oxidation: +0       Element: N    pdb-name: N    Scat. Types:   8   7 Mass=14.006740000 B-factor:1.000   
                 Charge=-0.405000000         Polarization=0.000000000  [A^3] (considered a charged atom and no polarization)  Interactions: yes
                 Anisotropic factor:    0.000 [-] (Relative), Radius:    0.700 [A], Framework-atom:  no
Pseudo Atom[   7] Name N_com    Oxidation: +0       Element: -    pdb-name: N    Scat. Types:   0   7 Mass=0.000000000  B-factor:1.000   
                 Charge=0.810000000          Polarization=0.000000000  [A^3] (considered a charged atom and no polarization)  Interactions: yes
                 Anisotropic factor:    0.000 [-] (Relative), Radius:    0.700 [A], Framework-atom:  no
Pseudo Atom[   8] Name N_nh3    Oxidation: +0       Element: N    pdb-name: N    Scat. Types:   8   7 Mass=14.006740000 B-factor:1.000   
                 Charge=-1.020000000         Polarization=0.000000000  [A^3] (considered a charged atom and no polarization)  Interactions: yes
                 Anisotropic factor:    0.000 [-] (Relative), Radius:    1.550 [A], Framework-atom:  no
Pseudo Atom[   9] Name H_nh3    Oxidation: +0       Element: H    pdb-name: H    Scat. Types:   1   1 Mass=1.007940000  B-factor:1.000   
                 Charge=0.340000000          Polarization=0.000000000  [A^3] (considered a charged atom and no polarization)  Interactions: yes
                 Anisotropic factor:    0.000 [-] (Relative), Radius:    0.500 [A], Framework-atom:  no
Pseudo Atom[  10] Name Cu0      Oxidation:          Element: Cu   pdb-name: Cu   Scat. Types:  30  29 Mass=63.546039732 B-factor:0.000   
                 Charge=0.827870000    (av)  Polarization=6.200000000  [A^3] (considered a charged atom and no polarization)  Interactions: yes
                 Anisotropic factor:    0.000 [-] (Absolute), Radius:    1.220 [A], Framework-atom: yes (charge from structure file)
Pseudo Atom[  11] Name Cu1      Oxidation:          Element: Cu   pdb-name: Cu   Scat. Types:  30  29 Mass=63.546039732 B-factor:0.000   
                 Charge=0.842838000    (av)  Polarization=6.200000000  [A^3] (considered a charged atom and no polarization)  Interactions: yes
                 Anisotropic factor:    0.000 [-] (Absolute), Radius:    1.220 [A], Framework-atom: yes (charge from structure file)
Pseudo Atom[  12] Name H2       Oxidation:          Element: H    pdb-name: H    Scat. Types:   1   1 Mass=1.007940754  B-factor:0.000   
                 Charge=0.044170000    (av)  Polarization=0.666793000  [A^3] (considered a charged atom and no polarization)  Interactions: yes
                 Anisotropic factor:    0.000 [-] (Absolute), Radius:    0.320 [A], Framework-atom: yes (charge from structure file)
Pseudo Atom[  13] Name H3       Oxidation:          Element: H    pdb-name: H    Scat. Types:   1   1 Mass=1.007940754  B-factor:0.000   
                 Charge=0.052433000    (av)  Polarization=0.666793000  [A^3] (considered a charged atom and no polarization)  Interactions: yes
                 Anisotropic factor:    0.000 [-] (Absolute), Radius:    0.320 [A], Framework-atom: yes (charge from structure file)
Pseudo Atom[  14] Name H4       Oxidation:          Element: H    pdb-name: H    Scat. Types:   1   1 Mass=1.007940754  B-factor:0.000   
                 Charge=0.038926000    (av)  Polarization=0.666793000  [A^3] (considered a charged atom and no polarization)  Interactions: yes
                 Anisotropic factor:    0.000 [-] (Absolute), Radius:    0.320 [A], Framework-atom: yes (charge from structure file)
Pseudo Atom[  15] Name H5       Oxidation:          Element: H    pdb-name: H    Scat. Types:   1   1 Mass=1.007940754  B-factor:0.000   
                 Charge=0.059561000    (av)  Polarization=0.666793000  [A^3] (considered a charged atom and no polarization)  Interactions: yes
                 Anisotropic factor:    0.000 [-] (Absolute), Radius:    0.320 [A], Framework-atom: yes (charge from structure file)
Pseudo Atom[  16] Name H6       Oxidation:          Element: H    pdb-name: H    Scat. Types:   1   1 Mass=1.007940754  B-factor:0.000   
                 Charge=0.042774000    (av)  Polarization=0.666793000  [A^3] (considered a charged atom and no polarization)  Interactions: yes
                 Anisotropic factor:    0.000 [-] (Absolute), Radius:    0.320 [A], Framework-atom: yes (charge from structure file)
Pseudo Atom[  17] Name H7       Oxidation:          Element: H    pdb-name: H    Scat. Types:   1   1 Mass=1.007940754  B-factor:0.000   
                 Charge=0.075939000    (av)  Polarization=0.666793000  [A^3] (considered a charged atom and no polarization)  Interactions: yes
                 Anisotropic factor:    0.000 [-] (Absolute), Radius:    0.320 [A], Framework-atom: yes (charge from structure file)
Pseudo Atom[  18] Name H8       Oxidation:          Element: H    pdb-name: H    Scat. Types:   1   1 Mass=1.007940754  B-factor:0.000   
                 Charge=0.048666000    (av)  Polarization=0.666793000  [A^3] (considered a charged atom and no polarization)  Interactions: yes
                 Anisotropic factor:    0.000 [-] (Absolute), Radius:    0.320 [A], Framework-atom: yes (charge from structure file)
Pseudo Atom[  19] Name H9       Oxidation:          Element: H    pdb-name: H    Scat. Types:   1   1 Mass=1.007940754  B-factor:0.000   
                 Charge=0.044001000    (av)  Polarization=0.666793000  [A^3] (considered a charged atom and no polarization)  Interactions: yes
                 Anisotropic factor:    0.000 [-] (Absolute), Radius:    0.320 [A], Framework-atom: yes (charge from structure file)
Pseudo Atom[  20] Name H10      Oxidation:          Element: H    pdb-name: H    Scat. Types:   1   1 Mass=1.007940754  B-factor:0.000   
                 Charge=-0.062165000   (av)  Polarization=0.666793000  [A^3] (considered a charged atom and no polarization)  Interactions: yes
                 Anisotropic factor:    0.000 [-] (Absolute), Radius:    0.320 [A], Framework-atom: yes (charge from structure file)
Pseudo Atom[  21] Name H11      Oxidation:          Element: H    pdb-name: H    Scat. Types:   1   1 Mass=1.007940754  B-factor:0.000   
                 Charge=0.009406000    (av)  Polarization=0.666793000  [A^3] (considered a charged atom and no polarization)  Interactions: yes
                 Anisotropic factor:    0.000 [-] (Absolute), Radius:    0.320 [A], Framework-atom: yes (charge from structure file)
Pseudo Atom[  22] Name H12      Oxidation:          Element: H    pdb-name: H    Scat. Types:   1   1 Mass=1.007940754  B-factor:0.000   
                 Charge=0.052968000    (av)  Polarization=0.666793000  [A^3] (considered a charged atom and no polarization)  Interactions: yes
                 Anisotropic factor:    0.000 [-] (Absolute), Radius:    0.320 [A], Framework-atom: yes (charge from structure file)
Pseudo Atom[  23] Name H13      Oxidation:          Element: H    pdb-name: H    Scat. Types:   1   1 Mass=1.007940754  B-factor:0.000   
                 Charge=0.042979000    (av)  Polarization=0.666793000  [A^3] (considered a charged atom and no polarization)  Interactions: yes
                 Anisotropic factor:    0.000 [-] (Absolute), Radius:    0.320 [A], Framework-atom: yes (charge from structure file)
Pseudo Atom[  24] Name H14      Oxidation:          Element: H    pdb-name: H    Scat. Types:   1   1 Mass=1.007940754  B-factor:0.000   
                 Charge=0.082909000    (av)  Polarization=0.666793000  [A^3] (considered a charged atom and no polarization)  Interactions: yes
                 Anisotropic factor:    0.000 [-] (Absolute), Radius:    0.320 [A], Framework-atom: yes (charge from structure file)
Pseudo Atom[  25] Name H15      Oxidation:          Element: H    pdb-name: H    Scat. Types:   1   1 Mass=1.007940754  B-factor:0.000   
                 Charge=0.015046000    (av)  Polarization=0.666793000  [A^3] (considered a charged atom and no polarization)  Interactions: yes
                 Anisotropic factor:    0.000 [-] (Absolute), Radius:    0.320 [A], Framework-atom: yes (charge from structure file)
Pseudo Atom[  26] Name H16      Oxidation:          Element: H    pdb-name: H    Scat. Types:   1   1 Mass=1.007940754  B-factor:0.000   
                 Charge=0.085698000    (av)  Polarization=0.666793000  [A^3] (considered a charged atom and no polarization)  Interactions: yes
                 Anisotropic factor:    0.000 [-] (Absolute), Radius:    0.320 [A], Framework-atom: yes (charge from structure file)
Pseudo Atom[  27] Name H17      Oxidation:          Element: H    pdb-name: H    Scat. Types:   1   1 Mass=1.007940754  B-factor:0.000   
                 Charge=0.011986000    (av)  Polarization=0.666793000  [A^3] (considered a charged atom and no polarization)  Interactions: yes
                 Anisotropic factor:    0.000 [-] (Absolute), Radius:    0.320 [A], Framework-atom: yes (charge from structure file)
Pseudo Atom[  28] Name H18      Oxidation:          Element: H    pdb-name: H    Scat. Types:   1   1 Mass=1.007940754  B-factor:0.000   
                 Charge=0.052536000    (av)  Polarization=0.666793000  [A^3] (considered a charged atom and no polarization)  Interactions: yes
                 Anisotropic factor:    0.000 [-] (Absolute), Radius:    0.320 [A], Framework-atom: yes (charge from structure file)
Pseudo Atom[  29] Name H19      Oxidation:          Element: H    pdb-name: H    Scat. Types:   1   1 Mass=1.007940754  B-factor:0.000   
                 Charge=0.050920000    (av)  Polarization=0.666793000  [A^3] (considered a charged atom and no polarization)  Interactions: yes
                 Anisotropic factor:    0.000 [-] (Absolute), Radius:    0.320 [A], Framework-atom: yes (charge from structure file)
Pseudo Atom[  30] Name H20      Oxidation:          Element: H    pdb-name: H    Scat. Types:   1   1 Mass=1.007940754  B-factor:0.000   
                 Charge=0.088163000    (av)  Polarization=0.666793000  [A^3] (considered a charged atom and no polarization)  Interactions: yes
                 Anisotropic factor:    0.000 [-] (Absolute), Radius:    0.320 [A], Framework-atom: yes (charge from structure file)
Pseudo Atom[  31] Name C21      Oxidation:          Element: C    pdb-name: C    Scat. Types:   7   6 Mass=12.010735897 B-factor:0.000   
                 Charge=-0.029695000   (av)  Polarization=1.760000000  [A^3] (considered a charged atom and no polarization)  Interactions: yes
                 Anisotropic factor:    0.000 [-] (Absolute), Radius:    0.750 [A], Framework-atom: yes (charge from structure file)
Pseudo Atom[  32] Name C22      Oxidation:          Element: C    pdb-name: C    Scat. Types:   7   6 Mass=12.010735897 B-factor:0.000   
                 Charge=-0.024381000   (av)  Polarization=1.760000000  [A^3] (considered a charged atom and no polarization)  Interactions: yes
                 Anisotropic factor:    0.000 [-] (Absolute), Radius:    0.750 [A], Framework-atom: yes (charge from structure file)
Pseudo Atom[  33] Name C23      Oxidation:          Element: C    pdb-name: C    Scat. Types:   7   6 Mass=12.010735897 B-factor:0.000   
                 Charge=-0.025256000   (av)  Polarization=1.760000000  [A^3] (considered a charged atom and no polarization)  Interactions: yes
                 Anisotropic factor:    0.000 [-] (Absolute), Radius:    0.750 [A], Framework-atom: yes (charge from structure file)
Pseudo Atom[  34] Name C24      Oxidation:          Element: C    pdb-name: C    Scat. Types:   7   6 Mass=12.010735897 B-factor:0.000   
                 Charge=-0.058516000   (av)  Polarization=1.760000000  [A^3] (considered a charged atom and no polarization)  Interactions: yes
                 Anisotropic factor:    0.000 [-] (Absolute), Radius:    0.750 [A], Framework-atom: yes (charge from structure file)
Pseudo Atom[  35] Name C25      Oxidation:          Element: C    pdb-name: C    Scat. Types:   7   6 Mass=12.010735897 B-factor:0.000   
                 Charge=0.045571000    (av)  Polarization=1.760000000  [A^3] (considered a charged atom and no polarization)  Interactions: yes
                 Anisotropic factor:    0.000 [-] (Absolute), Radius:    0.750 [A], Framework-atom: yes (charge from structure file)
Pseudo Atom[  36] Name C26      Oxidation:          Element: C    pdb-name: C    Scat. Types:   7   6 Mass=12.010735897 B-factor:0.000   
                 Charge=0.062213000    (av)  Polarization=1.760000000  [A^3] (considered a charged atom and no polarization)  Interactions: yes
                 Anisotropic factor:    0.000 [-] (Absolute), Radius:    0.750 [A], Framework-atom: yes (charge from structure file)
Pseudo Atom[  37] Name C27      Oxidation:          Element: C    pdb-name: C    Scat. Types:   7   6 Mass=12.010735897 B-factor:0.000   
                 Charge=0.007877000    (av)  Polarization=1.760000000  [A^3] (considered a charged atom and no polarization)  Interactions: yes
                 Anisotropic factor:    0.000 [-] (Absolute), Radius:    0.750 [A], Framework-atom: yes (charge from structure file)
Pseudo Atom[  38] Name C28      Oxidation:          Element: C    pdb-name: C    Scat. Types:   7   6 Mass=12.010735897 B-factor:0.000   
                 Charge=-0.018334000   (av)  Polarization=1.760000000  [A^3] (considered a charged atom and no polarization)  Interactions: yes
                 Anisotropic factor:    0.000 [-] (Absolute), Radius:    0.750 [A], Framework-atom: yes (charge from structure file)
Pseudo Atom[  39] Name C29      Oxidation:          Element: C    pdb-name: C    Scat. Types:   7   6 Mass=12.010735897 B-factor:0.000   
                 Charge=-0.021966000   (av)  Polarization=1.760000000  [A^3] (considered a charged atom and no polarization)  Interactions: yes
                 Anisotropic factor:    0.000 [-] (Absolute), Radius:    0.750 [A], Framework-atom: yes (charge from structure file)
Pseudo Atom[  40] Name C30      Oxidation:          Element: C    pdb-name: C    Scat. Types:   7   6 Mass=12.010735897 B-factor:0.000   
                 Charge=-0.110972000   (av)  Polarization=1.760000000  [A^3] (considered a charged atom and no polarization)  Interactions: yes
                 Anisotropic factor:    0.000 [-] (Absolute), Radius:    0.750 [A], Framework-atom: yes (charge from structure file)
Pseudo Atom[  41] Name C31      Oxidation:          Element: C    pdb-name: C    Scat. Types:   7   6 Mass=12.010735897 B-factor:0.000   
                 Charge=0.073536000    (av)  Polarization=1.760000000  [A^3] (considered a charged atom and no polarization)  Interactions: yes
                 Anisotropic factor:    0.000 [-] (Absolute), Radius:    0.750 [A], Framework-atom: yes (charge from structure file)
Pseudo Atom[  42] Name C32      Oxidation:          Element: C    pdb-name: C    Scat. Types:   7   6 Mass=12.010735897 B-factor:0.000   
                 Charge=0.129482000    (av)  Polarization=1.760000000  [A^3] (considered a charged atom and no polarization)  Interactions: yes
                 Anisotropic factor:    0.000 [-] (Absolute), Radius:    0.750 [A], Framework-atom: yes (charge from structure file)
Pseudo Atom[  43] Name C33      Oxidation:          Element: C    pdb-name: C    Scat. Types:   7   6 Mass=12.010735897 B-factor:0.000   
                 Charge=-0.050944000   (av)  Polarization=1.760000000  [A^3] (considered a charged atom and no polarization)  Interactions: yes
                 Anisotropic factor:    0.000 [-] (Absolute), Radius:    0.750 [A], Framework-atom: yes (charge from structure file)
Pseudo Atom[  44] Name C34      Oxidation:          Element: C    pdb-name: C    Scat. Types:   7   6 Mass=12.010735897 B-factor:0.000   
                 Charge=-0.011162000   (av)  Polarization=1.760000000  [A^3] (considered a charged atom and no polarization)  Interactions: yes
                 Anisotropic factor:    0.000 [-] (Absolute), Radius:    0.750 [A], Framework-atom: yes (charge from structure file)
Pseudo Atom[  45] Name C35      Oxidation:          Element: C    pdb-name: C    Scat. Types:   7   6 Mass=12.010735897 B-factor:0.000   
                 Charge=-0.003994000   (av)  Polarization=1.760000000  [A^3] (considered a charged atom and no polarization)  Interactions: yes
                 Anisotropic factor:    0.000 [-] (Absolute), Radius:    0.750 [A], Framework-atom: yes (charge from structure file)
Pseudo Atom[  46] Name C36      Oxidation:          Element: C    pdb-name: C    Scat. Types:   7   6 Mass=12.010735897 B-factor:0.000   
                 Charge=-0.024237000   (av)  Polarization=1.760000000  [A^3] (considered a charged atom and no polarization)  Interactions: yes
                 Anisotropic factor:    0.000 [-] (Absolute), Radius:    0.750 [A], Framework-atom: yes (charge from structure file)
Pseudo Atom[  47] Name C37      Oxidation:          Element: C    pdb-name: C    Scat. Types:   7   6 Mass=12.010735897 B-factor:0.000   
                 Charge=0.037969000    (av)  Polarization=1.760000000  [A^3] (considered a charged atom and no polarization)  Interactions: yes
                 Anisotropic factor:    0.000 [-] (Absolute), Radius:    0.750 [A], Framework-atom: yes (charge from structure file)
Pseudo Atom[  48] Name C38      Oxidation:          Element: C    pdb-name: C    Scat. Types:   7   6 Mass=12.010735897 B-factor:0.000   
                 Charge=0.054901000    (av)  Polarization=1.760000000  [A^3] (considered a charged atom and no polarization)  Interactions: yes
                 Anisotropic factor:    0.000 [-] (Absolute), Radius:    0.750 [A], Framework-atom: yes (charge from structure file)
Pseudo Atom[  49] Name C39      Oxidation:          Element: C    pdb-name: C    Scat. Types:   7   6 Mass=12.010735897 B-factor:0.000   
                 Charge=0.000636000    (av)  Polarization=1.760000000  [A^3] (considered a charged atom and no polarization)  Interactions: yes
                 Anisotropic factor:    0.000 [-] (Absolute), Radius:    0.750 [A], Framework-atom: yes (charge from structure file)
Pseudo Atom[  50] Name C40      Oxidation:          Element: C    pdb-name: C    Scat. Types:   7   6 Mass=12.010735897 B-factor:0.000   
                 Charge=-0.004009000   (av)  Polarization=1.760000000  [A^3] (considered a charged atom and no polarization)  Interactions: yes
                 Anisotropic factor:    0.000 [-] (Absolute), Radius:    0.750 [A], Framework-atom: yes (charge from structure file)
Pseudo Atom[  51] Name C41      Oxidation:          Element: C    pdb-name: C    Scat. Types:   7   6 Mass=12.010735897 B-factor:0.000   
                 Charge=-0.039933000   (av)  Polarization=1.760000000  [A^3] (considered a charged atom and no polarization)  Interactions: yes
                 Anisotropic factor:    0.000 [-] (Absolute), Radius:    0.750 [A], Framework-atom: yes (charge from structure file)
Pseudo Atom[  52] Name C42      Oxidation:          Element: C    pdb-name: C    Scat. Types:   7   6 Mass=12.010735897 B-factor:0.000   
                 Charge=0.362317000    (av)  Polarization=1.760000000  [A^3] (considered a charged atom and no polarization)  Interactions: yes
                 Anisotropic factor:    0.000 [-] (Absolute), Radius:    0.750 [A], Framework-atom: yes (charge from structure file)
Pseudo Atom[  53] Name C43      Oxidation:          Element: C    pdb-name: C    Scat. Types:   7   6 Mass=12.010735897 B-factor:0.000   
                 Charge=0.294699000    (av)  Polarization=1.760000000  [A^3] (considered a charged atom and no polarization)  Interactions: yes
                 Anisotropic factor:    0.000 [-] (Absolute), Radius:    0.750 [A], Framework-atom: yes (charge from structure file)
Pseudo Atom[  54] Name C44      Oxidation:          Element: C    pdb-name: C    Scat. Types:   7   6 Mass=12.010735897 B-factor:0.000   
                 Charge=-0.080693000   (av)  Polarization=1.760000000  [A^3] (considered a charged atom and no polarization)  Interactions: yes
                 Anisotropic factor:    0.000 [-] (Absolute), Radius:    0.750 [A], Framework-atom: yes (charge from structure file)
Pseudo Atom[  55] Name C45      Oxidation:          Element: C    pdb-name: C    Scat. Types:   7   6 Mass=12.010735897 B-factor:0.000   
                 Charge=-0.018248000   (av)  Polarization=1.760000000  [A^3] (considered a charged atom and no polarization)  Interactions: yes
                 Anisotropic factor:    0.000 [-] (Absolute), Radius:    0.750 [A], Framework-atom: yes (charge from structure file)
Pseudo Atom[  56] Name C46      Oxidation:          Element: C    pdb-name: C    Scat. Types:   7   6 Mass=12.010735897 B-factor:0.000   
                 Charge=-0.045175000   (av)  Polarization=1.760000000  [A^3] (considered a charged atom and no polarization)  Interactions: yes
                 Anisotropic factor:    0.000 [-] (Absolute), Radius:    0.750 [A], Framework-atom: yes (charge from structure file)
Pseudo Atom[  57] Name C47      Oxidation:          Element: C    pdb-name: C    Scat. Types:   7   6 Mass=12.010735897 B-factor:0.000   
                 Charge=-0.016632000   (av)  Polarization=1.760000000  [A^3] (considered a charged atom and no polarization)  Interactions: yes
                 Anisotropic factor:    0.000 [-] (Absolute), Radius:    0.750 [A], Framework-atom: yes (charge from structure file)
Pseudo Atom[  58] Name C48      Oxidation:          Element: C    pdb-name: C    Scat. Types:   7   6 Mass=12.010735897 B-factor:0.000   
                 Charge=0.056585000    (av)  Polarization=1.760000000  [A^3] (considered a charged atom and no polarization)  Interactions: yes
                 Anisotropic factor:    0.000 [-] (Absolute), Radius:    0.750 [A], Framework-atom: yes (charge from structure file)
Pseudo Atom[  59] Name C49      Oxidation:          Element: C    pdb-name: C    Scat. Types:   7   6 Mass=12.010735897 B-factor:0.000   
                 Charge=-0.077059000   (av)  Polarization=1.760000000  [A^3] (considered a charged atom and no polarization)  Interactions: yes
                 Anisotropic factor:    0.000 [-] (Absolute), Radius:    0.750 [A], Framework-atom: yes (charge from structure file)
Pseudo Atom[  60] Name C50      Oxidation:          Element: C    pdb-name: C    Scat. Types:   7   6 Mass=12.010735897 B-factor:0.000   
                 Charge=0.016543000    (av)  Polarization=1.760000000  [A^3] (considered a charged atom and no polarization)  Interactions: yes
                 Anisotropic factor:    0.000 [-] (Absolute), Radius:    0.750 [A], Framework-atom: yes (charge from structure file)
Pseudo Atom[  61] Name C51      Oxidation:          Element: C    pdb-name: C    Scat. Types:   7   6 Mass=12.010735897 B-factor:0.000   
                 Charge=-0.064713000   (av)  Polarization=1.760000000  [A^3] (considered a charged atom and no polarization)  Interactions: yes
                 Anisotropic factor:    0.000 [-] (Absolute), Radius:    0.750 [A], Framework-atom: yes (charge from structure file)
Pseudo Atom[  62] Name C52      Oxidation:          Element: C    pdb-name: C    Scat. Types:   7   6 Mass=12.010735897 B-factor:0.000   
                 Charge=-0.056492000   (av)  Polarization=1.760000000  [A^3] (considered a charged atom and no polarization)  Interactions: yes
                 Anisotropic factor:    0.000 [-] (Absolute), Radius:    0.750 [A], Framework-atom: yes (charge from structure file)
Pseudo Atom[  63] Name C53      Oxidation:          Element: C    pdb-name: C    Scat. Types:   7   6 Mass=12.010735897 B-factor:0.000   
                 Charge=0.007147000    (av)  Polarization=1.760000000  [A^3] (considered a charged atom and no polarization)  Interactions: yes
                 Anisotropic factor:    0.000 [-] (Absolute), Radius:    0.750 [A], Framework-atom: yes (charge from structure file)
Pseudo Atom[  64] Name C54      Oxidation:          Element: C    pdb-name: C    Scat. Types:   7   6 Mass=12.010735897 B-factor:0.000   
                 Charge=0.063590000    (av)  Polarization=1.760000000  [A^3] (considered a charged atom and no polarization)  Interactions: yes
                 Anisotropic factor:    0.000 [-] (Absolute), Radius:    0.750 [A], Framework-atom: yes (charge from structure file)
Pseudo Atom[  65] Name C55      Oxidation:          Element: C    pdb-name: C    Scat. Types:   7   6 Mass=12.010735897 B-factor:0.000   
                 Charge=-0.040377000   (av)  Polarization=1.760000000  [A^3] (considered a charged atom and no polarization)  Interactions: yes
                 Anisotropic factor:    0.000 [-] (Absolute), Radius:    0.750 [A], Framework-atom: yes (charge from structure file)
Pseudo Atom[  66] Name C56      Oxidation:          Element: C    pdb-name: C    Scat. Types:   7   6 Mass=12.010735897 B-factor:0.000   
                 Charge=0.062034000    (av)  Polarization=1.760000000  [A^3] (considered a charged atom and no polarization)  Interactions: yes
                 Anisotropic factor:    0.000 [-] (Absolute), Radius:    0.750 [A], Framework-atom: yes (charge from structure file)
Pseudo Atom[  67] Name C57      Oxidation:          Element: C    pdb-name: C    Scat. Types:   7   6 Mass=12.010735897 B-factor:0.000   
                 Charge=-0.019116000   (av)  Polarization=1.760000000  [A^3] (considered a charged atom and no polarization)  Interactions: yes
                 Anisotropic factor:    0.000 [-] (Absolute), Radius:    0.750 [A], Framework-atom: yes (charge from structure file)
Pseudo Atom[  68] Name C58      Oxidation:          Element: C    pdb-name: C    Scat. Types:   7   6 Mass=12.010735897 B-factor:0.000   
                 Charge=-0.086982000   (av)  Polarization=1.760000000  [A^3] (considered a charged atom and no polarization)  Interactions: yes
                 Anisotropic factor:    0.000 [-] (Absolute), Radius:    0.750 [A], Framework-atom: yes (charge from structure file)
Pseudo Atom[  69] Name C59      Oxidation:          Element: C    pdb-name: C    Scat. Types:   7   6 Mass=12.010735897 B-factor:0.000   
                 Charge=0.074219000    (av)  Polarization=1.760000000  [A^3] (considered a charged atom and no polarization)  Interactions: yes
                 Anisotropic factor:    0.000 [-] (Absolute), Radius:    0.750 [A], Framework-atom: yes (charge from structure file)
Pseudo Atom[  70] Name C60      Oxidation:          Element: C    pdb-name: C    Scat. Types:   7   6 Mass=12.010735897 B-factor:0.000   
                 Charge=0.051592000    (av)  Polarization=1.760000000  [A^3] (considered a charged atom and no polarization)  Interactions: yes
                 Anisotropic factor:    0.000 [-] (Absolute), Radius:    0.750 [A], Framework-atom: yes (charge from structure file)
Pseudo Atom[  71] Name C61      Oxidation:          Element: C    pdb-name: C    Scat. Types:   7   6 Mass=12.010735897 B-factor:0.000   
                 Charge=-0.070561000   (av)  Polarization=1.760000000  [A^3] (considered a charged atom and no polarization)  Interactions: yes
                 Anisotropic factor:    0.000 [-] (Absolute), Radius:    0.750 [A], Framework-atom: yes (charge from structure file)
Pseudo Atom[  72] Name N62      Oxidation:          Element: N    pdb-name: N    Scat. Types:   8   7 Mass=14.006703212 B-factor:0.000   
                 Charge=-0.163546000   (av)  Polarization=1.100000000  [A^3] (considered a charged atom and no polarization)  Interactions: yes
                 Anisotropic factor:    0.000 [-] (Absolute), Radius:    0.710 [A], Framework-atom: yes (charge from structure file)
Pseudo Atom[  73] Name N63      Oxidation:          Element: N    pdb-name: N    Scat. Types:   8   7 Mass=14.006703212 B-factor:0.000   
                 Charge=-0.153348000   (av)  Polarization=1.100000000  [A^3] (considered a charged atom and no polarization)  Interactions: yes
                 Anisotropic factor:    0.000 [-] (Absolute), Radius:    0.710 [A], Framework-atom: yes (charge from structure file)
Pseudo Atom[  74] Name N64      Oxidation:          Element: N    pdb-name: N    Scat. Types:   8   7 Mass=14.006703212 B-factor:0.000   
                 Charge=-0.057140000   (av)  Polarization=1.100000000  [A^3] (considered a charged atom and no polarization)  Interactions: yes
                 Anisotropic factor:    0.000 [-] (Absolute), Radius:    0.710 [A], Framework-atom: yes (charge from structure file)
Pseudo Atom[  75] Name O65      Oxidation:          Element: O    pdb-name: O    Scat. Types:   9   8 Mass=15.999404927 B-factor:0.000   
                 Charge=-0.158129000   (av)  Polarization=0.802000000  [A^3] (considered a charged atom and no polarization)  Interactions: yes
                 Anisotropic factor:    0.000 [-] (Absolute), Radius:    0.640 [A], Framework-atom: yes (charge from structure file)
Pseudo Atom[  76] Name O66      Oxidation:          Element: O    pdb-name: O    Scat. Types:   9   8 Mass=15.999404927 B-factor:0.000   
                 Charge=-0.249128000   (av)  Polarization=0.802000000  [A^3] (considered a charged atom and no polarization)  Interactions: yes
                 Anisotropic factor:    0.000 [-] (Absolute), Radius:    0.640 [A], Framework-atom: yes (charge from structure file)
Pseudo Atom[  77] Name O67      Oxidation:          Element: O    pdb-name: O    Scat. Types:   9   8 Mass=15.999404927 B-factor:0.000   
                 Charge=-0.190008000   (av)  Polarization=0.802000000  [A^3] (considered a charged atom and no polarization)  Interactions: yes
                 Anisotropic factor:    0.000 [-] (Absolute), Radius:    0.640 [A], Framework-atom: yes (charge from structure file)
Pseudo Atom[  78] Name O68      Oxidation:          Element: O    pdb-name: O    Scat. Types:   9   8 Mass=15.999404927 B-factor:0.000   
                 Charge=-0.149437000   (av)  Polarization=0.802000000  [A^3] (considered a charged atom and no polarization)  Interactions: yes
                 Anisotropic factor:    0.000 [-] (Absolute), Radius:    0.640 [A], Framework-atom: yes (charge from structure file)
Pseudo Atom[  79] Name O69      Oxidation:          Element: O    pdb-name: O    Scat. Types:   9   8 Mass=15.999404927 B-factor:0.000   
                 Charge=-0.168246000   (av)  Polarization=0.802000000  [A^3] (considered a charged atom and no polarization)  Interactions: yes
                 Anisotropic factor:    0.000 [-] (Absolute), Radius:    0.640 [A], Framework-atom: yes (charge from structure file)
Pseudo Atom[  80] Name O70      Oxidation:          Element: O    pdb-name: O    Scat. Types:   9   8 Mass=15.999404927 B-factor:0.000   
                 Charge=-0.498656000   (av)  Polarization=0.802000000  [A^3] (considered a charged atom and no polarization)  Interactions: yes
                 Anisotropic factor:    0.000 [-] (Absolute), Radius:    0.640 [A], Framework-atom: yes (charge from structure file)
Pseudo Atom[  81] Name O71      Oxidation:          Element: O    pdb-name: O    Scat. Types:   9   8 Mass=15.999404927 B-factor:0.000   
                 Charge=-0.465898000   (av)  Polarization=0.802000000  [A^3] (considered a charged atom and no polarization)  Interactions: yes
                 Anisotropic factor:    0.000 [-] (Absolute), Radius:    0.640 [A], Framework-atom: yes (charge from structure file)
Pseudo Atom[  82] Name O72      Oxidation:          Element: O    pdb-name: O    Scat. Types:   9   8 Mass=15.999404927 B-factor:0.000   
                 Charge=-0.246518000   (av)  Polarization=0.802000000  [A^3] (considered a charged atom and no polarization)  Interactions: yes
                 Anisotropic factor:    0.000 [-] (Absolute), Radius:    0.640 [A], Framework-atom: yes (charge from structure file)
Pseudo Atom[  83] Name O73      Oxidation:          Element: O    pdb-name: O    Scat. Types:   9   8 Mass=15.999404927 B-factor:0.000   
                 Charge=-0.202060000   (av)  Polarization=0.802000000  [A^3] (considered a charged atom and no polarization)  Interactions: yes
                 Anisotropic factor:    0.000 [-] (Absolute), Radius:    0.640 [A], Framework-atom: yes (charge from structure file)
Pseudo Atom[  84] Name O74      Oxidation:          Element: O    pdb-name: O    Scat. Types:   9   8 Mass=15.999404927 B-factor:0.000   
                 Charge=-0.206976000   (av)  Polarization=0.802000000  [A^3] (considered a charged atom and no polarization)  Interactions: yes
                 Anisotropic factor:    0.000 [-] (Absolute), Radius:    0.640 [A], Framework-atom: yes (charge from structure file)


Forcefield: NH3_GCMC
===========================================================================
Minimal distance: 1
CutOff VDW : 12.000000 (144.000000)
CutOff VDW switching on: 10.800000 (116.640000)
CutOff charge-charge : 12.000000 (144.000000)
CutOff charge-charge switching on: 7.800000 (60.840000)
CutOff charge-bonddipole : 12.000000 (144.000000)
CutOff charge-bondipole switching on: 8.400000 (70.560000)
CutOff bonddipole-bonddipole : 12.000000 (144.000000)
CutOff bonddipole-bondipole switching on: 9.000000 (81.000000)
Polarization is neglected
TailCorrections are used
All potentials are shifted to zero at the Cutoff

General mixing rule: Lorentz-Berthelot mixing rules are used FIRST for cross terms
0 cross terms are overwritten using the individual mixing rules from the file 'force_field_mixing_rules.def'
and then 0 terms are overwritten using the specific interactions from the file 'force_field.def'

The force field and all the interactions:
     He -      He [LENNARD_JONES] p_0/k_B:  10.90000 [K], p_1: 2.64000 [A], shift/k_B:  -0.00494280 [K], tailcorrection: yes
     He -      Ar [LENNARD_JONES] p_0/k_B:  36.13613 [K], p_1: 3.02000 [A], shift/k_B:  -0.03671516 [K], tailcorrection: yes
     He -     CH4 [LENNARD_JONES] p_0/k_B:  40.16466 [K], p_1: 3.18500 [A], shift/k_B:  -0.05614633 [K], tailcorrection: yes
     He -   C_co2 [LENNARD_JONES] p_0/k_B:  17.15517 [K], p_1: 2.72000 [A], shift/k_B:  -0.00930512 [K], tailcorrection: yes
     He -   O_co2 [LENNARD_JONES] p_0/k_B:  29.34451 [K], p_1: 2.84500 [A], shift/k_B:  -0.02084087 [K], tailcorrection: yes
     He -    N_n2 [LENNARD_JONES] p_0/k_B:  19.80909 [K], p_1: 2.97500 [A], shift/k_B:  -0.01839323 [K], tailcorrection: yes
     He -   N_com [ZERO_POTENTIAL]
     He -   N_nh3 [LENNARD_JONES] p_0/k_B:  44.90546 [K], p_1: 3.03000 [A], shift/k_B:  -0.04653876 [K], tailcorrection: yes
     He -   H_nh3 [LENNARD_JONES] p_0/k_B:   0.00000 [K], p_1: 1.32000 [A], shift/k_B:  -0.00000000 [K], tailcorrection: yes
     He -     Cu0 [LENNARD_JONES] p_0/k_B:   5.23694 [K], p_1: 2.87685 [A], shift/k_B:  -0.00397618 [K], tailcorrection: yes
     He -     Cu1 [LENNARD_JONES] p_0/k_B:   5.23694 [K], p_1: 2.87685 [A], shift/k_B:  -0.00397618 [K], tailcorrection: yes
     He -      H2 [LENNARD_JONES] p_0/k_B:   9.13090 [K], p_1: 2.74321 [A], shift/k_B:  -0.00521169 [K], tailcorrection: yes
     He -      H3 [LENNARD_JONES] p_0/k_B:   9.13090 [K], p_1: 2.74321 [A], shift/k_B:  -0.00521169 [K], tailcorrection: yes
     He -      H4 [LENNARD_JONES] p_0/k_B:   9.13090 [K], p_1: 2.74321 [A], shift/k_B:  -0.00521169 [K], tailcorrection: yes
     He -      H5 [LENNARD_JONES] p_0/k_B:   9.13090 [K], p_1: 2.74321 [A], shift/k_B:  -0.00521169 [K], tailcorrection: yes
     He -      H6 [LENNARD_JONES] p_0/k_B:   9.13090 [K], p_1: 2.74321 [A], shift/k_B:  -0.00521169 [K], tailcorrection: yes
     He -      H7 [LENNARD_JONES] p_0/k_B:   9.13090 [K], p_1: 2.74321 [A], shift/k_B:  -0.00521169 [K], tailcorrection: yes
     He -      H8 [LENNARD_JONES] p_0/k_B:   9.13090 [K], p_1: 2.74321 [A], shift/k_B:  -0.00521169 [K], tailcorrection: yes
     He -      H9 [LENNARD_JONES] p_0/k_B:   9.13090 [K], p_1: 2.74321 [A], shift/k_B:  -0.00521169 [K], tailcorrection: yes
     He -     H10 [LENNARD_JONES] p_0/k_B:   9.13090 [K], p_1: 2.74321 [A], shift/k_B:  -0.00521169 [K], tailcorrection: yes
     He -     H11 [LENNARD_JONES] p_0/k_B:   9.13090 [K], p_1: 2.74321 [A], shift/k_B:  -0.00521169 [K], tailcorrection: yes
     He -     H12 [LENNARD_JONES] p_0/k_B:   9.13090 [K], p_1: 2.74321 [A], shift/k_B:  -0.00521169 [K], tailcorrection: yes
     He -     H13 [LENNARD_JONES] p_0/k_B:   9.13090 [K], p_1: 2.74321 [A], shift/k_B:  -0.00521169 [K], tailcorrection: yes
     He -     H14 [LENNARD_JONES] p_0/k_B:   9.13090 [K], p_1: 2.74321 [A], shift/k_B:  -0.00521169 [K], tailcorrection: yes
     He -     H15 [LENNARD_JONES] p_0/k_B:   9.13090 [K], p_1: 2.74321 [A], shift/k_B:  -0.00521169 [K], tailcorrection: yes
     He -     H16 [LENNARD_JONES] p_0/k_B:   9.13090 [K], p_1: 2.74321 [A], shift/k_B:  -0.00521169 [K], tailcorrection: yes
     He -     H17 [LENNARD_JONES] p_0/k_B:   9.13090 [K], p_1: 2.74321 [A], shift/k_B:  -0.00521169 [K], tailcorrection: yes
     He -     H18 [LENNARD_JONES] p_0/k_B:   9.13090 [K], p_1: 2.74321 [A], shift/k_B:  -0.00521169 [K], tailcorrection: yes
     He -     H19 [LENNARD_JONES] p_0/k_B:   9.13090 [K], p_1: 2.74321 [A], shift/k_B:  -0.00521169 [K], tailcorrection: yes
     He -     H20 [LENNARD_JONES] p_0/k_B:   9.13090 [K], p_1: 2.74321 [A], shift/k_B:  -0.00521169 [K], tailcorrection: yes
     He -     C21 [LENNARD_JONES] p_0/k_B:  22.83928 [K], p_1: 3.05649 [A], shift/k_B:  -0.02493896 [K], tailcorrection: yes
     He -     C22 [LENNARD_JONES] p_0/k_B:  22.83928 [K], p_1: 3.05649 [A], shift/k_B:  -0.02493896 [K], tailcorrection: yes
     He -     C23 [LENNARD_JONES] p_0/k_B:  22.83928 [K], p_1: 3.05649 [A], shift/k_B:  -0.02493896 [K], tailcorrection: yes
     He -     C24 [LENNARD_JONES] p_0/k_B:  22.83928 [K], p_1: 3.05649 [A], shift/k_B:  -0.02493896 [K], tailcorrection: yes
     He -     C25 [LENNARD_JONES] p_0/k_B:  22.83928 [K], p_1: 3.05649 [A], shift/k_B:  -0.02493896 [K], tailcorrection: yes
     He -     C26 [LENNARD_JONES] p_0/k_B:  22.83928 [K], p_1: 3.05649 [A], shift/k_B:  -0.02493896 [K], tailcorrection: yes
     He -     C27 [LENNARD_JONES] p_0/k_B:  22.83928 [K], p_1: 3.05649 [A], shift/k_B:  -0.02493896 [K], tailcorrection: yes
     He -     C28 [LENNARD_JONES] p_0/k_B:  22.83928 [K], p_1: 3.05649 [A], shift/k_B:  -0.02493896 [K], tailcorrection: yes
     He -     C29 [LENNARD_JONES] p_0/k_B:  22.83928 [K], p_1: 3.05649 [A], shift/k_B:  -0.02493896 [K], tailcorrection: yes
     He -     C30 [LENNARD_JONES] p_0/k_B:  22.83928 [K], p_1: 3.05649 [A], shift/k_B:  -0.02493896 [K], tailcorrection: yes
     He -     C31 [LENNARD_JONES] p_0/k_B:  22.83928 [K], p_1: 3.05649 [A], shift/k_B:  -0.02493896 [K], tailcorrection: yes
     He -     C32 [LENNARD_JONES] p_0/k_B:  22.83928 [K], p_1: 3.05649 [A], shift/k_B:  -0.02493896 [K], tailcorrection: yes
     He -     C33 [LENNARD_JONES] p_0/k_B:  22.83928 [K], p_1: 3.05649 [A], shift/k_B:  -0.02493896 [K], tailcorrection: yes
     He -     C34 [LENNARD_JONES] p_0/k_B:  22.83928 [K], p_1: 3.05649 [A], shift/k_B:  -0.02493896 [K], tailcorrection: yes
     He -     C35 [LENNARD_JONES] p_0/k_B:  22.83928 [K], p_1: 3.05649 [A], shift/k_B:  -0.02493896 [K], tailcorrection: yes
     He -     C36 [LENNARD_JONES] p_0/k_B:  22.83928 [K], p_1: 3.05649 [A], shift/k_B:  -0.02493896 [K], tailcorrection: yes
     He -     C37 [LENNARD_JONES] p_0/k_B:  22.83928 [K], p_1: 3.05649 [A], shift/k_B:  -0.02493896 [K], tailcorrection: yes
     He -     C38 [LENNARD_JONES] p_0/k_B:  22.83928 [K], p_1: 3.05649 [A], shift/k_B:  -0.02493896 [K], tailcorrection: yes
     He -     C39 [LENNARD_JONES] p_0/k_B:  22.83928 [K], p_1: 3.05649 [A], shift/k_B:  -0.02493896 [K], tailcorrection: yes
     He -     C40 [LENNARD_JONES] p_0/k_B:  22.83928 [K], p_1: 3.05649 [A], shift/k_B:  -0.02493896 [K], tailcorrection: yes
     He -     C41 [LENNARD_JONES] p_0/k_B:  22.83928 [K], p_1: 3.05649 [A], shift/k_B:  -0.02493896 [K], tailcorrection: yes
     He -     C42 [LENNARD_JONES] p_0/k_B:  22.83928 [K], p_1: 3.05649 [A], shift/k_B:  -0.02493896 [K], tailcorrection: yes
     He -     C43 [LENNARD_JONES] p_0/k_B:  22.83928 [K], p_1: 3.05649 [A], shift/k_B:  -0.02493896 [K], tailcorrection: yes
     He -     C44 [LENNARD_JONES] p_0/k_B:  22.83928 [K], p_1: 3.05649 [A], shift/k_B:  -0.02493896 [K], tailcorrection: yes
     He -     C45 [LENNARD_JONES] p_0/k_B:  22.83928 [K], p_1: 3.05649 [A], shift/k_B:  -0.02493896 [K], tailcorrection: yes
     He -     C46 [LENNARD_JONES] p_0/k_B:  22.83928 [K], p_1: 3.05649 [A], shift/k_B:  -0.02493896 [K], tailcorrection: yes
     He -     C47 [LENNARD_JONES] p_0/k_B:  22.83928 [K], p_1: 3.05649 [A], shift/k_B:  -0.02493896 [K], tailcorrection: yes
     He -     C48 [LENNARD_JONES] p_0/k_B:  22.83928 [K], p_1: 3.05649 [A], shift/k_B:  -0.02493896 [K], tailcorrection: yes
     He -     C49 [LENNARD_JONES] p_0/k_B:  22.83928 [K], p_1: 3.05649 [A], shift/k_B:  -0.02493896 [K], tailcorrection: yes
     He -     C50 [LENNARD_JONES] p_0/k_B:  22.83928 [K], p_1: 3.05649 [A], shift/k_B:  -0.02493896 [K], tailcorrection: yes
     He -     C51 [LENNARD_JONES] p_0/k_B:  22.83928 [K], p_1: 3.05649 [A], shift/k_B:  -0.02493896 [K], tailcorrection: yes
     He -     C52 [LENNARD_JONES] p_0/k_B:  22.83928 [K], p_1: 3.05649 [A], shift/k_B:  -0.02493896 [K], tailcorrection: yes
     He -     C53 [LENNARD_JONES] p_0/k_B:  22.83928 [K], p_1: 3.05649 [A], shift/k_B:  -0.02493896 [K], tailcorrection: yes
     He -     C54 [LENNARD_JONES] p_0/k_B:  22.83928 [K], p_1: 3.05649 [A], shift/k_B:  -0.02493896 [K], tailcorrection: yes
     He -     C55 [LENNARD_JONES] p_0/k_B:  22.83928 [K], p_1: 3.05649 [A], shift/k_B:  -0.02493896 [K], tailcorrection: yes
     He -     C56 [LENNARD_JONES] p_0/k_B:  22.83928 [K], p_1: 3.05649 [A], shift/k_B:  -0.02493896 [K], tailcorrection: yes
     He -     C57 [LENNARD_JONES] p_0/k_B:  22.83928 [K], p_1: 3.05649 [A], shift/k_B:  -0.02493896 [K], tailcorrection: yes
     He -     C58 [LENNARD_JONES] p_0/k_B:  22.83928 [K], p_1: 3.05649 [A], shift/k_B:  -0.02493896 [K], tailcorrection: yes
     He -     C59 [LENNARD_JONES] p_0/k_B:  22.83928 [K], p_1: 3.05649 [A], shift/k_B:  -0.02493896 [K], tailcorrection: yes
     He -     C60 [LENNARD_JONES] p_0/k_B:  22.83928 [K], p_1: 3.05649 [A], shift/k_B:  -0.02493896 [K], tailcorrection: yes
     He -     C61 [LENNARD_JONES] p_0/k_B:  22.83928 [K], p_1: 3.05649 [A], shift/k_B:  -0.02493896 [K], tailcorrection: yes
     He -     N62 [LENNARD_JONES] p_0/k_B:  20.60452 [K], p_1: 2.95128 [A], shift/k_B:  -0.01823482 [K], tailcorrection: yes
     He -     N63 [LENNARD_JONES] p_0/k_B:  20.60452 [K], p_1: 2.95128 [A], shift/k_B:  -0.01823482 [K], tailcorrection: yes
     He -     N64 [LENNARD_JONES] p_0/k_B:  20.60452 [K], p_1: 2.95128 [A], shift/k_B:  -0.01823482 [K], tailcorrection: yes
     He -     O65 [LENNARD_JONES] p_0/k_B:  22.91120 [K], p_1: 2.83657 [A], shift/k_B:  -0.01598491 [K], tailcorrection: yes
     He -     O66 [LENNARD_JONES] p_0/k_B:  22.91120 [K], p_1: 2.83657 [A], shift/k_B:  -0.01598491 [K], tailcorrection: yes
     He -     O67 [LENNARD_JONES] p_0/k_B:  22.91120 [K], p_1: 2.83657 [A], shift/k_B:  -0.01598491 [K], tailcorrection: yes
     He -     O68 [LENNARD_JONES] p_0/k_B:  22.91120 [K], p_1: 2.83657 [A], shift/k_B:  -0.01598491 [K], tailcorrection: yes
     He -     O69 [LENNARD_JONES] p_0/k_B:  22.91120 [K], p_1: 2.83657 [A], shift/k_B:  -0.01598491 [K], tailcorrection: yes
     He -     O70 [LENNARD_JONES] p_0/k_B:  22.91120 [K], p_1: 2.83657 [A], shift/k_B:  -0.01598491 [K], tailcorrection: yes
     He -     O71 [LENNARD_JONES] p_0/k_B:  22.91120 [K], p_1: 2.83657 [A], shift/k_B:  -0.01598491 [K], tailcorrection: yes
     He -     O72 [LENNARD_JONES] p_0/k_B:  22.91120 [K], p_1: 2.83657 [A], shift/k_B:  -0.01598491 [K], tailcorrection: yes
     He -     O73 [LENNARD_JONES] p_0/k_B:  22.91120 [K], p_1: 2.83657 [A], shift/k_B:  -0.01598491 [K], tailcorrection: yes
     He -     O74 [LENNARD_JONES] p_0/k_B:  22.91120 [K], p_1: 2.83657 [A], shift/k_B:  -0.01598491 [K], tailcorrection: yes
     Ar -      Ar [LENNARD_JONES] p_0/k_B: 119.80000 [K], p_1: 3.40000 [A], shift/k_B:  -0.24778676 [K], tailcorrection: yes
     Ar -     CH4 [LENNARD_JONES] p_0/k_B: 133.15555 [K], p_1: 3.56500 [A], shift/k_B:  -0.36592351 [K], tailcorrection: yes
     Ar -   C_co2 [LENNARD_JONES] p_0/k_B:  56.87354 [K], p_1: 3.10000 [A], shift/k_B:  -0.06759645 [K], tailcorrection: yes
     Ar -   O_co2 [LENNARD_JONES] p_0/k_B:  97.28412 [K], p_1: 3.22500 [A], shift/k_B:  -0.14656461 [K], tailcorrection: yes
     Ar -    N_n2 [LENNARD_JONES] p_0/k_B:  65.67191 [K], p_1: 3.35500 [A], shift/k_B:  -0.12540067 [K], tailcorrection: yes
     Ar -   N_com [ZERO_POTENTIAL]
     Ar -   N_nh3 [LENNARD_JONES] p_0/k_B: 148.87243 [K], p_1: 3.41000 [A], shift/k_B:  -0.31338942 [K], tailcorrection: yes
     Ar -   H_nh3 [LENNARD_JONES] p_0/k_B:   0.00000 [K], p_1: 1.70000 [A], shift/k_B:  -0.00000000 [K], tailcorrection: yes
     Ar -     Cu0 [LENNARD_JONES] p_0/k_B:  17.36170 [K], p_1: 3.25685 [A], shift/k_B:  -0.02774430 [K], tailcorrection: yes
     Ar -     Cu1 [LENNARD_JONES] p_0/k_B:  17.36170 [K], p_1: 3.25685 [A], shift/k_B:  -0.02774430 [K], tailcorrection: yes
     Ar -      H2 [LENNARD_JONES] p_0/k_B:  30.27114 [K], p_1: 3.12321 [A], shift/k_B:  -0.03762473 [K], tailcorrection: yes
     Ar -      H3 [LENNARD_JONES] p_0/k_B:  30.27114 [K], p_1: 3.12321 [A], shift/k_B:  -0.03762473 [K], tailcorrection: yes
     Ar -      H4 [LENNARD_JONES] p_0/k_B:  30.27114 [K], p_1: 3.12321 [A], shift/k_B:  -0.03762473 [K], tailcorrection: yes
     Ar -      H5 [LENNARD_JONES] p_0/k_B:  30.27114 [K], p_1: 3.12321 [A], shift/k_B:  -0.03762473 [K], tailcorrection: yes
     Ar -      H6 [LENNARD_JONES] p_0/k_B:  30.27114 [K], p_1: 3.12321 [A], shift/k_B:  -0.03762473 [K], tailcorrection: yes
     Ar -      H7 [LENNARD_JONES] p_0/k_B:  30.27114 [K], p_1: 3.12321 [A], shift/k_B:  -0.03762473 [K], tailcorrection: yes
     Ar -      H8 [LENNARD_JONES] p_0/k_B:  30.27114 [K], p_1: 3.12321 [A], shift/k_B:  -0.03762473 [K], tailcorrection: yes
     Ar -      H9 [LENNARD_JONES] p_0/k_B:  30.27114 [K], p_1: 3.12321 [A], shift/k_B:  -0.03762473 [K], tailcorrection: yes
     Ar -     H10 [LENNARD_JONES] p_0/k_B:  30.27114 [K], p_1: 3.12321 [A], shift/k_B:  -0.03762473 [K], tailcorrection: yes
     Ar -     H11 [LENNARD_JONES] p_0/k_B:  30.27114 [K], p_1: 3.12321 [A], shift/k_B:  -0.03762473 [K], tailcorrection: yes
     Ar -     H12 [LENNARD_JONES] p_0/k_B:  30.27114 [K], p_1: 3.12321 [A], shift/k_B:  -0.03762473 [K], tailcorrection: yes
     Ar -     H13 [LENNARD_JONES] p_0/k_B:  30.27114 [K], p_1: 3.12321 [A], shift/k_B:  -0.03762473 [K], tailcorrection: yes
     Ar -     H14 [LENNARD_JONES] p_0/k_B:  30.27114 [K], p_1: 3.12321 [A], shift/k_B:  -0.03762473 [K], tailcorrection: yes
     Ar -     H15 [LENNARD_JONES] p_0/k_B:  30.27114 [K], p_1: 3.12321 [A], shift/k_B:  -0.03762473 [K], tailcorrection: yes
     Ar -     H16 [LENNARD_JONES] p_0/k_B:  30.27114 [K], p_1: 3.12321 [A], shift/k_B:  -0.03762473 [K], tailcorrection: yes
     Ar -     H17 [LENNARD_JONES] p_0/k_B:  30.27114 [K], p_1: 3.12321 [A], shift/k_B:  -0.03762473 [K], tailcorrection: yes
     Ar -     H18 [LENNARD_JONES] p_0/k_B:  30.27114 [K], p_1: 3.12321 [A], shift/k_B:  -0.03762473 [K], tailcorrection: yes
     Ar -     H19 [LENNARD_JONES] p_0/k_B:  30.27114 [K], p_1: 3.12321 [A], shift/k_B:  -0.03762473 [K], tailcorrection: yes
     Ar -     H20 [LENNARD_JONES] p_0/k_B:  30.27114 [K], p_1: 3.12321 [A], shift/k_B:  -0.03762473 [K], tailcorrection: yes
     Ar -     C21 [LENNARD_JONES] p_0/k_B:  75.71772 [K], p_1: 3.43649 [A], shift/k_B:  -0.16696472 [K], tailcorrection: yes
     Ar -     C22 [LENNARD_JONES] p_0/k_B:  75.71772 [K], p_1: 3.43649 [A], shift/k_B:  -0.16696472 [K], tailcorrection: yes
     Ar -     C23 [LENNARD_JONES] p_0/k_B:  75.71772 [K], p_1: 3.43649 [A], shift/k_B:  -0.16696472 [K], tailcorrection: yes
     Ar -     C24 [LENNARD_JONES] p_0/k_B:  75.71772 [K], p_1: 3.43649 [A], shift/k_B:  -0.16696472 [K], tailcorrection: yes
     Ar -     C25 [LENNARD_JONES] p_0/k_B:  75.71772 [K], p_1: 3.43649 [A], shift/k_B:  -0.16696472 [K], tailcorrection: yes
     Ar -     C26 [LENNARD_JONES] p_0/k_B:  75.71772 [K], p_1: 3.43649 [A], shift/k_B:  -0.16696472 [K], tailcorrection: yes
     Ar -     C27 [LENNARD_JONES] p_0/k_B:  75.71772 [K], p_1: 3.43649 [A], shift/k_B:  -0.16696472 [K], tailcorrection: yes
     Ar -     C28 [LENNARD_JONES] p_0/k_B:  75.71772 [K], p_1: 3.43649 [A], shift/k_B:  -0.16696472 [K], tailcorrection: yes
     Ar -     C29 [LENNARD_JONES] p_0/k_B:  75.71772 [K], p_1: 3.43649 [A], shift/k_B:  -0.16696472 [K], tailcorrection: yes
     Ar -     C30 [LENNARD_JONES] p_0/k_B:  75.71772 [K], p_1: 3.43649 [A], shift/k_B:  -0.16696472 [K], tailcorrection: yes
     Ar -     C31 [LENNARD_JONES] p_0/k_B:  75.71772 [K], p_1: 3.43649 [A], shift/k_B:  -0.16696472 [K], tailcorrection: yes
     Ar -     C32 [LENNARD_JONES] p_0/k_B:  75.71772 [K], p_1: 3.43649 [A], shift/k_B:  -0.16696472 [K], tailcorrection: yes
     Ar -     C33 [LENNARD_JONES] p_0/k_B:  75.71772 [K], p_1: 3.43649 [A], shift/k_B:  -0.16696472 [K], tailcorrection: yes
     Ar -     C34 [LENNARD_JONES] p_0/k_B:  75.71772 [K], p_1: 3.43649 [A], shift/k_B:  -0.16696472 [K], tailcorrection: yes
     Ar -     C35 [LENNARD_JONES] p_0/k_B:  75.71772 [K], p_1: 3.43649 [A], shift/k_B:  -0.16696472 [K], tailcorrection: yes
     Ar -     C36 [LENNARD_JONES] p_0/k_B:  75.71772 [K], p_1: 3.43649 [A], shift/k_B:  -0.16696472 [K], tailcorrection: yes
     Ar -     C37 [LENNARD_JONES] p_0/k_B:  75.71772 [K], p_1: 3.43649 [A], shift/k_B:  -0.16696472 [K], tailcorrection: yes
     Ar -     C38 [LENNARD_JONES] p_0/k_B:  75.71772 [K], p_1: 3.43649 [A], shift/k_B:  -0.16696472 [K], tailcorrection: yes
     Ar -     C39 [LENNARD_JONES] p_0/k_B:  75.71772 [K], p_1: 3.43649 [A], shift/k_B:  -0.16696472 [K], tailcorrection: yes
     Ar -     C40 [LENNARD_JONES] p_0/k_B:  75.71772 [K], p_1: 3.43649 [A], shift/k_B:  -0.16696472 [K], tailcorrection: yes
     Ar -     C41 [LENNARD_JONES] p_0/k_B:  75.71772 [K], p_1: 3.43649 [A], shift/k_B:  -0.16696472 [K], tailcorrection: yes
     Ar -     C42 [LENNARD_JONES] p_0/k_B:  75.71772 [K], p_1: 3.43649 [A], shift/k_B:  -0.16696472 [K], tailcorrection: yes
     Ar -     C43 [LENNARD_JONES] p_0/k_B:  75.71772 [K], p_1: 3.43649 [A], shift/k_B:  -0.16696472 [K], tailcorrection: yes
     Ar -     C44 [LENNARD_JONES] p_0/k_B:  75.71772 [K], p_1: 3.43649 [A], shift/k_B:  -0.16696472 [K], tailcorrection: yes
     Ar -     C45 [LENNARD_JONES] p_0/k_B:  75.71772 [K], p_1: 3.43649 [A], shift/k_B:  -0.16696472 [K], tailcorrection: yes
     Ar -     C46 [LENNARD_JONES] p_0/k_B:  75.71772 [K], p_1: 3.43649 [A], shift/k_B:  -0.16696472 [K], tailcorrection: yes
     Ar -     C47 [LENNARD_JONES] p_0/k_B:  75.71772 [K], p_1: 3.43649 [A], shift/k_B:  -0.16696472 [K], tailcorrection: yes
     Ar -     C48 [LENNARD_JONES] p_0/k_B:  75.71772 [K], p_1: 3.43649 [A], shift/k_B:  -0.16696472 [K], tailcorrection: yes
     Ar -     C49 [LENNARD_JONES] p_0/k_B:  75.71772 [K], p_1: 3.43649 [A], shift/k_B:  -0.16696472 [K], tailcorrection: yes
     Ar -     C50 [LENNARD_JONES] p_0/k_B:  75.71772 [K], p_1: 3.43649 [A], shift/k_B:  -0.16696472 [K], tailcorrection: yes
     Ar -     C51 [LENNARD_JONES] p_0/k_B:  75.71772 [K], p_1: 3.43649 [A], shift/k_B:  -0.16696472 [K], tailcorrection: yes
     Ar -     C52 [LENNARD_JONES] p_0/k_B:  75.71772 [K], p_1: 3.43649 [A], shift/k_B:  -0.16696472 [K], tailcorrection: yes
     Ar -     C53 [LENNARD_JONES] p_0/k_B:  75.71772 [K], p_1: 3.43649 [A], shift/k_B:  -0.16696472 [K], tailcorrection: yes
     Ar -     C54 [LENNARD_JONES] p_0/k_B:  75.71772 [K], p_1: 3.43649 [A], shift/k_B:  -0.16696472 [K], tailcorrection: yes
     Ar -     C55 [LENNARD_JONES] p_0/k_B:  75.71772 [K], p_1: 3.43649 [A], shift/k_B:  -0.16696472 [K], tailcorrection: yes
     Ar -     C56 [LENNARD_JONES] p_0/k_B:  75.71772 [K], p_1: 3.43649 [A], shift/k_B:  -0.16696472 [K], tailcorrection: yes
     Ar -     C57 [LENNARD_JONES] p_0/k_B:  75.71772 [K], p_1: 3.43649 [A], shift/k_B:  -0.16696472 [K], tailcorrection: yes
     Ar -     C58 [LENNARD_JONES] p_0/k_B:  75.71772 [K], p_1: 3.43649 [A], shift/k_B:  -0.16696472 [K], tailcorrection: yes
     Ar -     C59 [LENNARD_JONES] p_0/k_B:  75.71772 [K], p_1: 3.43649 [A], shift/k_B:  -0.16696472 [K], tailcorrection: yes
     Ar -     C60 [LENNARD_JONES] p_0/k_B:  75.71772 [K], p_1: 3.43649 [A], shift/k_B:  -0.16696472 [K], tailcorrection: yes
     Ar -     C61 [LENNARD_JONES] p_0/k_B:  75.71772 [K], p_1: 3.43649 [A], shift/k_B:  -0.16696472 [K], tailcorrection: yes
     Ar -     N62 [LENNARD_JONES] p_0/k_B:  68.30896 [K], p_1: 3.33128 [A], shift/k_B:  -0.12500236 [K], tailcorrection: yes
     Ar -     N63 [LENNARD_JONES] p_0/k_B:  68.30896 [K], p_1: 3.33128 [A], shift/k_B:  -0.12500236 [K], tailcorrection: yes
     Ar -     N64 [LENNARD_JONES] p_0/k_B:  68.30896 [K], p_1: 3.33128 [A], shift/k_B:  -0.12500236 [K], tailcorrection: yes
     Ar -     O65 [LENNARD_JONES] p_0/k_B:  75.95617 [K], p_1: 3.21657 [A], shift/k_B:  -0.11265139 [K], tailcorrection: yes
     Ar -     O66 [LENNARD_JONES] p_0/k_B:  75.95617 [K], p_1: 3.21657 [A], shift/k_B:  -0.11265139 [K], tailcorrection: yes
     Ar -     O67 [LENNARD_JONES] p_0/k_B:  75.95617 [K], p_1: 3.21657 [A], shift/k_B:  -0.11265139 [K], tailcorrection: yes
     Ar -     O68 [LENNARD_JONES] p_0/k_B:  75.95617 [K], p_1: 3.21657 [A], shift/k_B:  -0.11265139 [K], tailcorrection: yes
     Ar -     O69 [LENNARD_JONES] p_0/k_B:  75.95617 [K], p_1: 3.21657 [A], shift/k_B:  -0.11265139 [K], tailcorrection: yes
     Ar -     O70 [LENNARD_JONES] p_0/k_B:  75.95617 [K], p_1: 3.21657 [A], shift/k_B:  -0.11265139 [K], tailcorrection: yes
     Ar -     O71 [LENNARD_JONES] p_0/k_B:  75.95617 [K], p_1: 3.21657 [A], shift/k_B:  -0.11265139 [K], tailcorrection: yes
     Ar -     O72 [LENNARD_JONES] p_0/k_B:  75.95617 [K], p_1: 3.21657 [A], shift/k_B:  -0.11265139 [K], tailcorrection: yes
     Ar -     O73 [LENNARD_JONES] p_0/k_B:  75.95617 [K], p_1: 3.21657 [A], shift/k_B:  -0.11265139 [K], tailcorrection: yes
     Ar -     O74 [LENNARD_JONES] p_0/k_B:  75.95617 [K], p_1: 3.21657 [A], shift/k_B:  -0.11265139 [K], tailcorrection: yes
    CH4 -     CH4 [LENNARD_JONES] p_0/k_B: 148.00000 [K], p_1: 3.73000 [A], shift/k_B:  -0.53345200 [K], tailcorrection: yes
    CH4 -   C_co2 [LENNARD_JONES] p_0/k_B:  63.21392 [K], p_1: 3.26500 [A], shift/k_B:  -0.10254350 [K], tailcorrection: yes
    CH4 -   O_co2 [LENNARD_JONES] p_0/k_B: 108.12955 [K], p_1: 3.39000 [A], shift/k_B:  -0.21973250 [K], tailcorrection: yes
    CH4 -    N_n2 [LENNARD_JONES] p_0/k_B:  72.99315 [K], p_1: 3.52000 [A], shift/k_B:  -0.18588051 [K], tailcorrection: yes
    CH4 -   N_com [ZERO_POTENTIAL]
    CH4 -   N_nh3 [LENNARD_JONES] p_0/k_B: 165.46903 [K], p_1: 3.57500 [A], shift/k_B:  -0.46242550 [K], tailcorrection: yes
    CH4 -   H_nh3 [LENNARD_JONES] p_0/k_B:   0.00000 [K], p_1: 1.86500 [A], shift/k_B:  -0.00000000 [K], tailcorrection: yes
    CH4 -     Cu0 [LENNARD_JONES] p_0/k_B:  19.29722 [K], p_1: 3.42185 [A], shift/k_B:  -0.04147590 [K], tailcorrection: yes
    CH4 -     Cu1 [LENNARD_JONES] p_0/k_B:  19.29722 [K], p_1: 3.42185 [A], shift/k_B:  -0.04147590 [K], tailcorrection: yes
    CH4 -      H2 [LENNARD_JONES] p_0/k_B:  33.64583 [K], p_1: 3.28821 [A], shift/k_B:  -0.05694782 [K], tailcorrection: yes
    CH4 -      H3 [LENNARD_JONES] p_0/k_B:  33.64583 [K], p_1: 3.28821 [A], shift/k_B:  -0.05694782 [K], tailcorrection: yes
    CH4 -      H4 [LENNARD_JONES] p_0/k_B:  33.64583 [K], p_1: 3.28821 [A], shift/k_B:  -0.05694782 [K], tailcorrection: yes
    CH4 -      H5 [LENNARD_JONES] p_0/k_B:  33.64583 [K], p_1: 3.28821 [A], shift/k_B:  -0.05694782 [K], tailcorrection: yes
    CH4 -      H6 [LENNARD_JONES] p_0/k_B:  33.64583 [K], p_1: 3.28821 [A], shift/k_B:  -0.05694782 [K], tailcorrection: yes
    CH4 -      H7 [LENNARD_JONES] p_0/k_B:  33.64583 [K], p_1: 3.28821 [A], shift/k_B:  -0.05694782 [K], tailcorrection: yes
    CH4 -      H8 [LENNARD_JONES] p_0/k_B:  33.64583 [K], p_1: 3.28821 [A], shift/k_B:  -0.05694782 [K], tailcorrection: yes
    CH4 -      H9 [LENNARD_JONES] p_0/k_B:  33.64583 [K], p_1: 3.28821 [A], shift/k_B:  -0.05694782 [K], tailcorrection: yes
    CH4 -     H10 [LENNARD_JONES] p_0/k_B:  33.64583 [K], p_1: 3.28821 [A], shift/k_B:  -0.05694782 [K], tailcorrection: yes
    CH4 -     H11 [LENNARD_JONES] p_0/k_B:  33.64583 [K], p_1: 3.28821 [A], shift/k_B:  -0.05694782 [K], tailcorrection: yes
    CH4 -     H12 [LENNARD_JONES] p_0/k_B:  33.64583 [K], p_1: 3.28821 [A], shift/k_B:  -0.05694782 [K], tailcorrection: yes
    CH4 -     H13 [LENNARD_JONES] p_0/k_B:  33.64583 [K], p_1: 3.28821 [A], shift/k_B:  -0.05694782 [K], tailcorrection: yes
    CH4 -     H14 [LENNARD_JONES] p_0/k_B:  33.64583 [K], p_1: 3.28821 [A], shift/k_B:  -0.05694782 [K], tailcorrection: yes
    CH4 -     H15 [LENNARD_JONES] p_0/k_B:  33.64583 [K], p_1: 3.28821 [A], shift/k_B:  -0.05694782 [K], tailcorrection: yes
    CH4 -     H16 [LENNARD_JONES] p_0/k_B:  33.64583 [K], p_1: 3.28821 [A], shift/k_B:  -0.05694782 [K], tailcorrection: yes
    CH4 -     H17 [LENNARD_JONES] p_0/k_B:  33.64583 [K], p_1: 3.28821 [A], shift/k_B:  -0.05694782 [K], tailcorrection: yes
    CH4 -     H18 [LENNARD_JONES] p_0/k_B:  33.64583 [K], p_1: 3.28821 [A], shift/k_B:  -0.05694782 [K], tailcorrection: yes
    CH4 -     H19 [LENNARD_JONES] p_0/k_B:  33.64583 [K], p_1: 3.28821 [A], shift/k_B:  -0.05694782 [K], tailcorrection: yes
    CH4 -     H20 [LENNARD_JONES] p_0/k_B:  33.64583 [K], p_1: 3.28821 [A], shift/k_B:  -0.05694782 [K], tailcorrection: yes
    CH4 -     C21 [LENNARD_JONES] p_0/k_B:  84.15888 [K], p_1: 3.60149 [A], shift/k_B:  -0.24583962 [K], tailcorrection: yes
    CH4 -     C22 [LENNARD_JONES] p_0/k_B:  84.15888 [K], p_1: 3.60149 [A], shift/k_B:  -0.24583962 [K], tailcorrection: yes
    CH4 -     C23 [LENNARD_JONES] p_0/k_B:  84.15888 [K], p_1: 3.60149 [A], shift/k_B:  -0.24583962 [K], tailcorrection: yes
    CH4 -     C24 [LENNARD_JONES] p_0/k_B:  84.15888 [K], p_1: 3.60149 [A], shift/k_B:  -0.24583962 [K], tailcorrection: yes
    CH4 -     C25 [LENNARD_JONES] p_0/k_B:  84.15888 [K], p_1: 3.60149 [A], shift/k_B:  -0.24583962 [K], tailcorrection: yes
    CH4 -     C26 [LENNARD_JONES] p_0/k_B:  84.15888 [K], p_1: 3.60149 [A], shift/k_B:  -0.24583962 [K], tailcorrection: yes
    CH4 -     C27 [LENNARD_JONES] p_0/k_B:  84.15888 [K], p_1: 3.60149 [A], shift/k_B:  -0.24583962 [K], tailcorrection: yes
    CH4 -     C28 [LENNARD_JONES] p_0/k_B:  84.15888 [K], p_1: 3.60149 [A], shift/k_B:  -0.24583962 [K], tailcorrection: yes
    CH4 -     C29 [LENNARD_JONES] p_0/k_B:  84.15888 [K], p_1: 3.60149 [A], shift/k_B:  -0.24583962 [K], tailcorrection: yes
    CH4 -     C30 [LENNARD_JONES] p_0/k_B:  84.15888 [K], p_1: 3.60149 [A], shift/k_B:  -0.24583962 [K], tailcorrection: yes
    CH4 -     C31 [LENNARD_JONES] p_0/k_B:  84.15888 [K], p_1: 3.60149 [A], shift/k_B:  -0.24583962 [K], tailcorrection: yes
    CH4 -     C32 [LENNARD_JONES] p_0/k_B:  84.15888 [K], p_1: 3.60149 [A], shift/k_B:  -0.24583962 [K], tailcorrection: yes
    CH4 -     C33 [LENNARD_JONES] p_0/k_B:  84.15888 [K], p_1: 3.60149 [A], shift/k_B:  -0.24583962 [K], tailcorrection: yes
    CH4 -     C34 [LENNARD_JONES] p_0/k_B:  84.15888 [K], p_1: 3.60149 [A], shift/k_B:  -0.24583962 [K], tailcorrection: yes
    CH4 -     C35 [LENNARD_JONES] p_0/k_B:  84.15888 [K], p_1: 3.60149 [A], shift/k_B:  -0.24583962 [K], tailcorrection: yes
    CH4 -     C36 [LENNARD_JONES] p_0/k_B:  84.15888 [K], p_1: 3.60149 [A], shift/k_B:  -0.24583962 [K], tailcorrection: yes
    CH4 -     C37 [LENNARD_JONES] p_0/k_B:  84.15888 [K], p_1: 3.60149 [A], shift/k_B:  -0.24583962 [K], tailcorrection: yes
    CH4 -     C38 [LENNARD_JONES] p_0/k_B:  84.15888 [K], p_1: 3.60149 [A], shift/k_B:  -0.24583962 [K], tailcorrection: yes
    CH4 -     C39 [LENNARD_JONES] p_0/k_B:  84.15888 [K], p_1: 3.60149 [A], shift/k_B:  -0.24583962 [K], tailcorrection: yes
    CH4 -     C40 [LENNARD_JONES] p_0/k_B:  84.15888 [K], p_1: 3.60149 [A], shift/k_B:  -0.24583962 [K], tailcorrection: yes
    CH4 -     C41 [LENNARD_JONES] p_0/k_B:  84.15888 [K], p_1: 3.60149 [A], shift/k_B:  -0.24583962 [K], tailcorrection: yes
    CH4 -     C42 [LENNARD_JONES] p_0/k_B:  84.15888 [K], p_1: 3.60149 [A], shift/k_B:  -0.24583962 [K], tailcorrection: yes
    CH4 -     C43 [LENNARD_JONES] p_0/k_B:  84.15888 [K], p_1: 3.60149 [A], shift/k_B:  -0.24583962 [K], tailcorrection: yes
    CH4 -     C44 [LENNARD_JONES] p_0/k_B:  84.15888 [K], p_1: 3.60149 [A], shift/k_B:  -0.24583962 [K], tailcorrection: yes
    CH4 -     C45 [LENNARD_JONES] p_0/k_B:  84.15888 [K], p_1: 3.60149 [A], shift/k_B:  -0.24583962 [K], tailcorrection: yes
    CH4 -     C46 [LENNARD_JONES] p_0/k_B:  84.15888 [K], p_1: 3.60149 [A], shift/k_B:  -0.24583962 [K], tailcorrection: yes
    CH4 -     C47 [LENNARD_JONES] p_0/k_B:  84.15888 [K], p_1: 3.60149 [A], shift/k_B:  -0.24583962 [K], tailcorrection: yes
    CH4 -     C48 [LENNARD_JONES] p_0/k_B:  84.15888 [K], p_1: 3.60149 [A], shift/k_B:  -0.24583962 [K], tailcorrection: yes
    CH4 -     C49 [LENNARD_JONES] p_0/k_B:  84.15888 [K], p_1: 3.60149 [A], shift/k_B:  -0.24583962 [K], tailcorrection: yes
    CH4 -     C50 [LENNARD_JONES] p_0/k_B:  84.15888 [K], p_1: 3.60149 [A], shift/k_B:  -0.24583962 [K], tailcorrection: yes
    CH4 -     C51 [LENNARD_JONES] p_0/k_B:  84.15888 [K], p_1: 3.60149 [A], shift/k_B:  -0.24583962 [K], tailcorrection: yes
    CH4 -     C52 [LENNARD_JONES] p_0/k_B:  84.15888 [K], p_1: 3.60149 [A], shift/k_B:  -0.24583962 [K], tailcorrection: yes
    CH4 -     C53 [LENNARD_JONES] p_0/k_B:  84.15888 [K], p_1: 3.60149 [A], shift/k_B:  -0.24583962 [K], tailcorrection: yes
    CH4 -     C54 [LENNARD_JONES] p_0/k_B:  84.15888 [K], p_1: 3.60149 [A], shift/k_B:  -0.24583962 [K], tailcorrection: yes
    CH4 -     C55 [LENNARD_JONES] p_0/k_B:  84.15888 [K], p_1: 3.60149 [A], shift/k_B:  -0.24583962 [K], tailcorrection: yes
    CH4 -     C56 [LENNARD_JONES] p_0/k_B:  84.15888 [K], p_1: 3.60149 [A], shift/k_B:  -0.24583962 [K], tailcorrection: yes
    CH4 -     C57 [LENNARD_JONES] p_0/k_B:  84.15888 [K], p_1: 3.60149 [A], shift/k_B:  -0.24583962 [K], tailcorrection: yes
    CH4 -     C58 [LENNARD_JONES] p_0/k_B:  84.15888 [K], p_1: 3.60149 [A], shift/k_B:  -0.24583962 [K], tailcorrection: yes
    CH4 -     C59 [LENNARD_JONES] p_0/k_B:  84.15888 [K], p_1: 3.60149 [A], shift/k_B:  -0.24583962 [K], tailcorrection: yes
    CH4 -     C60 [LENNARD_JONES] p_0/k_B:  84.15888 [K], p_1: 3.60149 [A], shift/k_B:  -0.24583962 [K], tailcorrection: yes
    CH4 -     C61 [LENNARD_JONES] p_0/k_B:  84.15888 [K], p_1: 3.60149 [A], shift/k_B:  -0.24583962 [K], tailcorrection: yes
    CH4 -     N62 [LENNARD_JONES] p_0/k_B:  75.92418 [K], p_1: 3.49628 [A], shift/k_B:  -0.18566247 [K], tailcorrection: yes
    CH4 -     N63 [LENNARD_JONES] p_0/k_B:  75.92418 [K], p_1: 3.49628 [A], shift/k_B:  -0.18566247 [K], tailcorrection: yes
    CH4 -     N64 [LENNARD_JONES] p_0/k_B:  75.92418 [K], p_1: 3.49628 [A], shift/k_B:  -0.18566247 [K], tailcorrection: yes
    CH4 -     O65 [LENNARD_JONES] p_0/k_B:  84.42392 [K], p_1: 3.38157 [A], shift/k_B:  -0.16901866 [K], tailcorrection: yes
    CH4 -     O66 [LENNARD_JONES] p_0/k_B:  84.42392 [K], p_1: 3.38157 [A], shift/k_B:  -0.16901866 [K], tailcorrection: yes
    CH4 -     O67 [LENNARD_JONES] p_0/k_B:  84.42392 [K], p_1: 3.38157 [A], shift/k_B:  -0.16901866 [K], tailcorrection: yes
    CH4 -     O68 [LENNARD_JONES] p_0/k_B:  84.42392 [K], p_1: 3.38157 [A], shift/k_B:  -0.16901866 [K], tailcorrection: yes
    CH4 -     O69 [LENNARD_JONES] p_0/k_B:  84.42392 [K], p_1: 3.38157 [A], shift/k_B:  -0.16901866 [K], tailcorrection: yes
    CH4 -     O70 [LENNARD_JONES] p_0/k_B:  84.42392 [K], p_1: 3.38157 [A], shift/k_B:  -0.16901866 [K], tailcorrection: yes
    CH4 -     O71 [LENNARD_JONES] p_0/k_B:  84.42392 [K], p_1: 3.38157 [A], shift/k_B:  -0.16901866 [K], tailcorrection: yes
    CH4 -     O72 [LENNARD_JONES] p_0/k_B:  84.42392 [K], p_1: 3.38157 [A], shift/k_B:  -0.16901866 [K], tailcorrection: yes
    CH4 -     O73 [LENNARD_JONES] p_0/k_B:  84.42392 [K], p_1: 3.38157 [A], shift/k_B:  -0.16901866 [K], tailcorrection: yes
    CH4 -     O74 [LENNARD_JONES] p_0/k_B:  84.42392 [K], p_1: 3.38157 [A], shift/k_B:  -0.16901866 [K], tailcorrection: yes
  C_co2 -   C_co2 [LENNARD_JONES] p_0/k_B:  27.00000 [K], p_1: 2.80000 [A], shift/k_B:  -0.01742667 [K], tailcorrection: yes
  C_co2 -   O_co2 [LENNARD_JONES] p_0/k_B:  46.18441 [K], p_1: 2.92500 [A], shift/k_B:  -0.03873754 [K], tailcorrection: yes
  C_co2 -    N_n2 [LENNARD_JONES] p_0/k_B:  31.17691 [K], p_1: 3.05500 [A], shift/k_B:  -0.03394335 [K], tailcorrection: yes
  C_co2 -   N_com [ZERO_POTENTIAL]
  C_co2 -   N_nh3 [LENNARD_JONES] p_0/k_B:  70.67531 [K], p_1: 3.11000 [A], shift/k_B:  -0.08563888 [K], tailcorrection: yes
  C_co2 -   H_nh3 [LENNARD_JONES] p_0/k_B:   0.00000 [K], p_1: 1.40000 [A], shift/k_B:  -0.00000000 [K], tailcorrection: yes
  C_co2 -     Cu0 [LENNARD_JONES] p_0/k_B:   8.24225 [K], p_1: 2.95684 [A], shift/k_B:  -0.00737722 [K], tailcorrection: yes
  C_co2 -     Cu1 [LENNARD_JONES] p_0/k_B:   8.24225 [K], p_1: 2.95684 [A], shift/k_B:  -0.00737722 [K], tailcorrection: yes
  C_co2 -      H2 [LENNARD_JONES] p_0/k_B:  14.37084 [K], p_1: 2.82321 [A], shift/k_B:  -0.00974631 [K], tailcorrection: yes
  C_co2 -      H3 [LENNARD_JONES] p_0/k_B:  14.37084 [K], p_1: 2.82321 [A], shift/k_B:  -0.00974631 [K], tailcorrection: yes
  C_co2 -      H4 [LENNARD_JONES] p_0/k_B:  14.37084 [K], p_1: 2.82321 [A], shift/k_B:  -0.00974631 [K], tailcorrection: yes
  C_co2 -      H5 [LENNARD_JONES] p_0/k_B:  14.37084 [K], p_1: 2.82321 [A], shift/k_B:  -0.00974631 [K], tailcorrection: yes
  C_co2 -      H6 [LENNARD_JONES] p_0/k_B:  14.37084 [K], p_1: 2.82321 [A], shift/k_B:  -0.00974631 [K], tailcorrection: yes
  C_co2 -      H7 [LENNARD_JONES] p_0/k_B:  14.37084 [K], p_1: 2.82321 [A], shift/k_B:  -0.00974631 [K], tailcorrection: yes
  C_co2 -      H8 [LENNARD_JONES] p_0/k_B:  14.37084 [K], p_1: 2.82321 [A], shift/k_B:  -0.00974631 [K], tailcorrection: yes
  C_co2 -      H9 [LENNARD_JONES] p_0/k_B:  14.37084 [K], p_1: 2.82321 [A], shift/k_B:  -0.00974631 [K], tailcorrection: yes
  C_co2 -     H10 [LENNARD_JONES] p_0/k_B:  14.37084 [K], p_1: 2.82321 [A], shift/k_B:  -0.00974631 [K], tailcorrection: yes
  C_co2 -     H11 [LENNARD_JONES] p_0/k_B:  14.37084 [K], p_1: 2.82321 [A], shift/k_B:  -0.00974631 [K], tailcorrection: yes
  C_co2 -     H12 [LENNARD_JONES] p_0/k_B:  14.37084 [K], p_1: 2.82321 [A], shift/k_B:  -0.00974631 [K], tailcorrection: yes
  C_co2 -     H13 [LENNARD_JONES] p_0/k_B:  14.37084 [K], p_1: 2.82321 [A], shift/k_B:  -0.00974631 [K], tailcorrection: yes
  C_co2 -     H14 [LENNARD_JONES] p_0/k_B:  14.37084 [K], p_1: 2.82321 [A], shift/k_B:  -0.00974631 [K], tailcorrection: yes
  C_co2 -     H15 [LENNARD_JONES] p_0/k_B:  14.37084 [K], p_1: 2.82321 [A], shift/k_B:  -0.00974631 [K], tailcorrection: yes
  C_co2 -     H16 [LENNARD_JONES] p_0/k_B:  14.37084 [K], p_1: 2.82321 [A], shift/k_B:  -0.00974631 [K], tailcorrection: yes
  C_co2 -     H17 [LENNARD_JONES] p_0/k_B:  14.37084 [K], p_1: 2.82321 [A], shift/k_B:  -0.00974631 [K], tailcorrection: yes
  C_co2 -     H18 [LENNARD_JONES] p_0/k_B:  14.37084 [K], p_1: 2.82321 [A], shift/k_B:  -0.00974631 [K], tailcorrection: yes
  C_co2 -     H19 [LENNARD_JONES] p_0/k_B:  14.37084 [K], p_1: 2.82321 [A], shift/k_B:  -0.00974631 [K], tailcorrection: yes
  C_co2 -     H20 [LENNARD_JONES] p_0/k_B:  14.37084 [K], p_1: 2.82321 [A], shift/k_B:  -0.00974631 [K], tailcorrection: yes
  C_co2 -     C21 [LENNARD_JONES] p_0/k_B:  35.94603 [K], p_1: 3.13650 [A], shift/k_B:  -0.04583029 [K], tailcorrection: yes
  C_co2 -     C22 [LENNARD_JONES] p_0/k_B:  35.94603 [K], p_1: 3.13650 [A], shift/k_B:  -0.04583029 [K], tailcorrection: yes
  C_co2 -     C23 [LENNARD_JONES] p_0/k_B:  35.94603 [K], p_1: 3.13650 [A], shift/k_B:  -0.04583029 [K], tailcorrection: yes
  C_co2 -     C24 [LENNARD_JONES] p_0/k_B:  35.94603 [K], p_1: 3.13650 [A], shift/k_B:  -0.04583029 [K], tailcorrection: yes
  C_co2 -     C25 [LENNARD_JONES] p_0/k_B:  35.94603 [K], p_1: 3.13650 [A], shift/k_B:  -0.04583029 [K], tailcorrection: yes
[...]
		Percentage of lambda-change moves:                 0.000000
		Percentage of fractional to integer moves:         0.000000

	System Moves:
		Percentage of parallel-tempering moves:            0.000000
		Percentage of hyper-parallel-tempering moves:      0.000000
		Percentage of parallel-mol-fraction moves:         0.000000
			   Component A: 0 B: 1
		Percentage of chiral inversion moves:              0.000000
		Percentage of Hybrid-NVE moves:                    0.000000
		Percentage of Hybrid-NPH moves:                    0.000000
		Percentage of Hybrid-NPHPR moves:                  0.000000
		Percentage of volume-change moves:                 0.000000
		Percentage of box-shape-change moves:              0.000000
		Percentage of Gibbs volume-change moves:           0.000000
		Percentage of framework-change moves:              0.000000
		Percentage of framework-shift moves:               0.000000
		Percentage of reactive MC moves:                   0.000000

	Moves are restricted: No
	No biased sampling used for this component

	Number of Bonds: 3
	--------------------------------------------
	Bond interaction 0: A=0 B=1 Type:RIGID_BOND
		r_0=1.0170000000       [A]
	Bond interaction 1: A=0 B=2 Type:RIGID_BOND
		r_0=1.0171538723       [A]
	Bond interaction 2: A=0 B=3 Type:RIGID_BOND
		r_0=1.0173116533       [A]


	number of identity changes: 1
	--------------------------------------------
	0 (NH3) to 0 (NH3)

	number of identity-config changes: 1
	--------------------------------------------
	nr fixed 1: 0 

	Number of pockets blocked in a unitcell: 0
		Pockets are NOT blocked for this component



Framework Status
===========================================================================
Lowenstein's rule obeyed by framework
	Framework is modelled as: rigid

	Number of charges:                               600
	Number of bonddipoles:                           0


System Properties
===========================================================================
Unit cell size: 12.403740 15.859670 13.967160
Cell angles (radians)  alpha: 1.178941 beta: 1.187126 gamma: 1.655781
Cell angles (degrees)  alpha: 67.548370 beta: 68.017290 gamma: 94.869290
Number of unitcells [a]: 2
Number of unitcells [b]: 2
Number of unitcells [c]: 2

TRICLINIC Boundary conditions: alpha!=90 or beta!=90 or gamma!=90

Cartesian axis A is collinear with crystallographic axis a
Cartesian axis B is collinear with (axb)xA
Cartesian axis C is collinear with (axb)

lengths of cell vectors:
 24.80748  31.71934  27.93432
cosines of cell angles:
  0.38190   0.37433  -0.08488
perpendicular cell widths:
 22.17606  28.26013  23.16206
volume of the cell: 18159.911928853213 (A^3)

Orthogonalization matrix Box
Transforms fractional coordinates abc into orthonormal Cartesian coordinates xyz
Deorthogonalization matrix InverseBox
Transforms orthonormal Cartesian coordinates xyz into fractional coordinates xyz

Box[0]:
	   24.807480000000    -2.692428904478    10.456564126280
	    0.000000000000    31.604862863647    11.597650110189
	    0.000000000000     0.000000000000    23.162059762833

Inverse box[0]:
	    0.040310422502     0.003434058460    -0.019917724548
	    0.000000000000     0.031640700493    -0.015843054431
	    0.000000000000    -0.000000000000     0.043174053182


Unitcell box[0]:
	   12.403740000000    -1.346214452239     5.228282063140
	    0.000000000000    15.802431431823     5.798825055094
	    0.000000000000     0.000000000000    11.581029881416

Unitcell inverse box[0]:
	    0.080620845003     0.006868116920    -0.039835449096
	    0.000000000000     0.063281400987    -0.031686108862
	    0.000000000000    -0.000000000000     0.086348106364

lengths of cell vectors (inverse box):
  0.04031   0.03183   0.05012
cosines of cell angles (inverse box):
 -0.35716  -0.39742   0.10790
perpendicular cell widths (inverse):
  0.03696   0.02970   0.04317
volume of the cell: 18159.911928853213 (A^3)

No replicas are used
Framework is simulated as 'rigid'
Number of framework atoms: 600
Number of framework atoms in the unit cell: 75
Framework Mass:  6725.578275696828 [g/mol]
Framework Density:   614.985536831271 [kg/m^3]    1.6260545006514 [cm^3/g]
Helium void fraction:    1.00000000
Available pore volume: 18159.91192885 [A^3]    1.62605450 [cm^3/g]
Conversion factor from molecule/unit cell -> kmol/m^3: 0.0914398, kmol/m^3 accesible pore volume: 0.0914398

Number Of Frameworks (per system): 1
----------------------------------------------------------------------
Framework name: sample_7_relaxed_charged
Space group: 1
	Identifier: 1
	short international Hermann-Mauguin symbol: P 1
	long international Hermann-Mauguin symbol: P 1
	Hall symbol: P 1
	Number of lattice translations: 1 [ (0,0,0) ]
	acentric/centric: acentric
	chiral: no
	enantiomorphic: no
	number of operators: 1
		'x,y,z'
Framework is simulated as 'rigid'
Shift: 0.000000 0.000000 0.000000
Number of framework atoms: 600
Number of asymmetric atoms: 75
Number of free framework atoms: 0
Number of fixed framework atoms: 600
Number of framework atoms in the unit cell: 75
Framework Mass:  6725.578275696828 [g/mol]
Framework Density:   614.985536831271 [kg/m^3]
Framework has net charge: -0.000016
         largest charge : 0.842838
         smallest charge: -0.498656

Using FULL Host-guest interaction calculation (for testing purposes)

Current Atom Status
===========================================================================
Number of framework atoms        : 600
Number of cations molecules      : 0
Number of adsorbate molecules    : 0
Component    0 :    0 molecules
Pseudo Atoms    0 [    UNIT]:    0 atoms
Pseudo Atoms    1 [      He]:    0 atoms
Pseudo Atoms    2 [      Ar]:    0 atoms
Pseudo Atoms    3 [     CH4]:    0 atoms
Pseudo Atoms    4 [   C_co2]:    0 atoms
Pseudo Atoms    5 [   O_co2]:    0 atoms
Pseudo Atoms    6 [    N_n2]:    0 atoms
Pseudo Atoms    7 [   N_com]:    0 atoms
Pseudo Atoms    8 [   N_nh3]:    0 atoms
Pseudo Atoms    9 [   H_nh3]:    0 atoms
Pseudo Atoms   10 [     Cu0]:    8 atoms
Pseudo Atoms   11 [     Cu1]:    8 atoms
Pseudo Atoms   12 [      H2]:    8 atoms
Pseudo Atoms   13 [      H3]:    8 atoms
Pseudo Atoms   14 [      H4]:    8 atoms
Pseudo Atoms   15 [      H5]:    8 atoms
Pseudo Atoms   16 [      H6]:    8 atoms
Pseudo Atoms   17 [      H7]:    8 atoms
Pseudo Atoms   18 [      H8]:    8 atoms
Pseudo Atoms   19 [      H9]:    8 atoms
Pseudo Atoms   20 [     H10]:    8 atoms
Pseudo Atoms   21 [     H11]:    8 atoms
Pseudo Atoms   22 [     H12]:    8 atoms
Pseudo Atoms   23 [     H13]:    8 atoms
Pseudo Atoms   24 [     H14]:    8 atoms
Pseudo Atoms   25 [     H15]:    8 atoms
Pseudo Atoms   26 [     H16]:    8 atoms
Pseudo Atoms   27 [     H17]:    8 atoms
Pseudo Atoms   28 [     H18]:    8 atoms
Pseudo Atoms   29 [     H19]:    8 atoms
Pseudo Atoms   30 [     H20]:    8 atoms
Pseudo Atoms   31 [     C21]:    8 atoms
Pseudo Atoms   32 [     C22]:    8 atoms
Pseudo Atoms   33 [     C23]:    8 atoms
Pseudo Atoms   34 [     C24]:    8 atoms
Pseudo Atoms   35 [     C25]:    8 atoms
Pseudo Atoms   36 [     C26]:    8 atoms
Pseudo Atoms   37 [     C27]:    8 atoms
Pseudo Atoms   38 [     C28]:    8 atoms
Pseudo Atoms   39 [     C29]:    8 atoms
Pseudo Atoms   40 [     C30]:    8 atoms
Pseudo Atoms   41 [     C31]:    8 atoms
Pseudo Atoms   42 [     C32]:    8 atoms
Pseudo Atoms   43 [     C33]:    8 atoms
Pseudo Atoms   44 [     C34]:    8 atoms
Pseudo Atoms   45 [     C35]:    8 atoms
Pseudo Atoms   46 [     C36]:    8 atoms
Pseudo Atoms   47 [     C37]:    8 atoms
Pseudo Atoms   48 [     C38]:    8 atoms
Pseudo Atoms   49 [     C39]:    8 atoms
Pseudo Atoms   50 [     C40]:    8 atoms
Pseudo Atoms   51 [     C41]:    8 atoms
Pseudo Atoms   52 [     C42]:    8 atoms
Pseudo Atoms   53 [     C43]:    8 atoms
Pseudo Atoms   54 [     C44]:    8 atoms
Pseudo Atoms   55 [     C45]:    8 atoms
Pseudo Atoms   56 [     C46]:    8 atoms
Pseudo Atoms   57 [     C47]:    8 atoms
Pseudo Atoms   58 [     C48]:    8 atoms
Pseudo Atoms   59 [     C49]:    8 atoms
Pseudo Atoms   60 [     C50]:    8 atoms
Pseudo Atoms   61 [     C51]:    8 atoms
Pseudo Atoms   62 [     C52]:    8 atoms
Pseudo Atoms   63 [     C53]:    8 atoms
Pseudo Atoms   64 [     C54]:    8 atoms
Pseudo Atoms   65 [     C55]:    8 atoms
Pseudo Atoms   66 [     C56]:    8 atoms
Pseudo Atoms   67 [     C57]:    8 atoms
Pseudo Atoms   68 [     C58]:    8 atoms
Pseudo Atoms   69 [     C59]:    8 atoms
Pseudo Atoms   70 [     C60]:    8 atoms
Pseudo Atoms   71 [     C61]:    8 atoms
Pseudo Atoms   72 [     N62]:    8 atoms
Pseudo Atoms   73 [     N63]:    8 atoms
Pseudo Atoms   74 [     N64]:    8 atoms
Pseudo Atoms   75 [     O65]:    8 atoms
Pseudo Atoms   76 [     O66]:    8 atoms
Pseudo Atoms   77 [     O67]:    8 atoms
Pseudo Atoms   78 [     O68]:    8 atoms
Pseudo Atoms   79 [     O69]:    8 atoms
Pseudo Atoms   80 [     O70]:    8 atoms
Pseudo Atoms   81 [     O71]:    8 atoms
Pseudo Atoms   82 [     O72]:    8 atoms
Pseudo Atoms   83 [     O73]:    8 atoms
Pseudo Atoms   84 [     O74]:    8 atoms


Current (initial full energy) Energy Status
===========================================================================

Internal energy:
Host stretch energy:                                            0.00000000
Host UreyBradley energy:                                        0.00000000
Host bend energy:                                               0.00000000
Host inversion-bend energy:                                     0.00000000
Host torsion energy:                                            0.00000000
Host improper torsion energy:                                   0.00000000
Host out-of-plane energy:                                       0.00000000
Host stretch/stretch energy:                                    0.00000000
Host bend/bend energy:                                          0.00000000
Host stretch/bend energy:                                       0.00000000
Host stretch/torsion energy:                                    0.00000000
Host bend/torsion energy:                                       0.00000000

Adsorbate stretch energy:                                       0.00000000
Adsorbate UreyBradley energy:                                   0.00000000
Adsorbate bend energy:                                          0.00000000
Adsorbate inversion-bend energy:                                0.00000000
Adsorbate torsion energy:                                       0.00000000
Adsorbate improper torsion energy:                              0.00000000
Adsorbate out-of-plane energy:                                  0.00000000
Adsorbate stretch/stretch energy:                               0.00000000
Adsorbate bend/bend energy:                                     0.00000000
Adsorbate stretch/bend energy:                                  0.00000000
Adsorbate stretch/torsion energy:                               0.00000000
Adsorbate bend/torsion energy:                                  0.00000000
Adsorbate intra VDW energy:                                     0.00000000
Adsorbate intra charge-charge Coulomb energy:                   0.00000000
Adsorbate intra charge-bonddipole Coulomb energy:               0.00000000
Adsorbate intra bonddipole-bonddipole Coulomb energy:           0.00000000

Cation stretch energy:                                          0.00000000
Cation UreyBradley energy:                                      0.00000000
Cation bend energy:                                             0.00000000
Cation inversion-bend energy:                                   0.00000000
Cation torsion energy:                                          0.00000000
Cation improper torsion energy:                                 0.00000000
Cation out-of-plane energy:                                     0.00000000
Cation stretch/stretch energy:                                  0.00000000
Cation bend/bend energy:                                        0.00000000
Cation stretch/bend energy:                                     0.00000000
Cation stretch/torsion energy:                                  0.00000000
Cation bend/torsion energy:                                     0.00000000
Cation intra VDW energy:                                        0.00000000
Cation intra charge-charge Coulomb energy:                      0.00000000
Cation intra charge-bonddipole Coulomb energy:                  0.00000000
Cation intra bonddipole-bonddipole Coulomb energy:              0.00000000

Host/Host energy:                                             0.00000000
	Host/Host VDW energy:                                         0.00000000
	Host/Host Coulomb energy:                                     0.00000000
	Host/Host charge-charge Real energy:                          0.00000000
	Host/Host charge-charge Fourier energy:                       0.00000000
	Host/Host charge-bonddipole Real energy:                      0.00000000
	Host/Host charge-bonddipole Fourier energy:                   0.00000000
	Host/Host bondipole-bonddipole Real energy:                   0.00000000
	Host/Host bondipole-bonddipole Fourier energy:                0.00000000

Host/Adsorbate energy:                                        0.00000000
	Host/Adsorbate VDW energy:                                    0.00000000
	Host/Adsorbate Coulomb energy:                                0.00000000
	Host/Adsorbate charge-charge Real energy:                     0.00000000
	Host/Adsorbate charge-charge Fourier energy:                  0.00000000
	Host/Adsorbate charge-bonddipole Real energy:                 0.00000000
	Host/Adsorbate charge-bonddipole Fourier energy:              0.00000000
	Host/Adsorbate bondipole-bonddipole Real energy:              0.00000000
	Host/Adsorbate bondipole-bonddipole Fourier energy:           0.00000000

Host/Cation energy:                                           0.00000000
	Host/Cation VDW energy:                                       0.00000000
	Host/Cation Coulomb energy:                                   0.00000000
	Host/Cation charge-charge Real energy:                        0.00000000
	Host/Cation charge-charge Fourier energy:                     0.00000000
	Host/Cation charge-bonddipole Real energy:                    0.00000000
	Host/Cation charge-bonddipole Fourier energy:                 0.00000000
	Host/Cation bondipole-bonddipole Real energy:                 0.00000000
	Host/Cation bondipole-bonddipole Fourier energy:              0.00000000

Adsorbate/Adsorbate energy:                                        0.00000000
	Adsorbate/Adsorbate VDW energy:                                    0.00000000
	Adsorbate/Adsorbate Coulomb energy:                                0.00000000
	Adsorbate/Adsorbate charge-charge Real energy:                     0.00000000
	Adsorbate/Adsorbate charge-charge Fourier energy:                  0.00000000
	Adsorbate/Adsorbate charge-bonddipole Real energy:                 0.00000000
	Adsorbate/Adsorbate charge-bonddipole Fourier energy:              0.00000000
	Adsorbate/Adsorbate bondipole-bonddipole Real energy:              0.00000000
	Adsorbate/Adsorbate bondipole-bonddipole Fourier energy:           0.00000000

Adsorbate/Cation energy:                                           0.00000000
	Adsorbate/Cation VDW energy:                                       0.00000000
	Adsorbate/Cation Coulomb energy:                                   0.00000000
	Adsorbate/Cation charge-charge Real energy:                        0.00000000
	Adsorbate/Cation charge-charge Fourier energy:                     0.00000000
	Adsorbate/Cation charge-bonddipole Real energy:                    0.00000000
	Adsorbate/Cation charge-bonddipole Fourier energy:                 0.00000000
	Adsorbate/Cation bondipole-bonddipole Real energy:                 0.00000000
	Adsorbate/Cation bondipole-bonddipole Fourier energy:              0.00000000

Cation/Cation energy:                                           0.00000000
	Cation/Cation VDW energy:                                       0.00000000
	Cation/Cation Coulomb energy:                                   0.00000000
	Cation/Cation charge-charge Real energy:                        0.00000000
	Cation/Cation charge-charge Fourier energy:                     0.00000000
	Cation/Cation charge-bonddipole Real energy:                    0.00000000
	Cation/Cation charge-bonddipole Fourier energy:                 0.00000000
	Cation/Cation bondipole-bonddipole Real energy:                 0.00000000
	Cation/Cation bondipole-bonddipole Fourier energy:              0.00000000

Polarization energy:
	Host polarization energy:                                     0.00000000
	Adsorbate polarization energy:                                0.00000000
	Cation polarization energy:                                   0.00000000
	Host back-polarization energy:                                     0.00000000
	Adsorbate back-polarization energy:                                0.00000000
	Cation back-polarization energy:                                   0.00000000

Tail-correction energy:                                   -4279.11808685

Distance constraints energy:                                  0.00000000
Angle constraints energy:                                     0.00000000
Dihedral constraints energy:                                  0.00000000
Inversion-bend constraints energy:                            0.00000000
Out-of-plane distance constraints energy:                     0.00000000
Exclusion constraints energy:                                 0.00000000

===================================================================
Total energy: -4279.118086854332
	Total Van der Waals: 0.000000
	Total Coulomb: 0.000000

	Total Polarization: 0.000000







+++++++++++++++++++++++++++++++++++++++++++++++++++++++++++++++++++++++++
Starting simulation
+++++++++++++++++++++++++++++++++++++++++++++++++++++++++++++++++++++++++

[Equilibration] Current cycle: 0 out of 2000
========================================================================================================

Net charge: -1.6e-05 (F: -1.6e-05, A: 0, C: 0)
Current Box:  24.80748  -2.69243  10.45656 [A]
               0.00000  31.60486  11.59765 [A]
               0.00000   0.00000  23.16206 [A]
Box-lengths:  24.80748  31.71934  27.93432 Box-angles:   67.54837  68.01729  94.86929 [degrees]
Volume: 18159.91193 [A^3]

Loadings per component:
----------------------------------------------------------------------------------------------------------------------------------------------------
Component 0 (NH3), current number of integer/fractional/reaction molecules: 0/0/0, density:   0.00000 [kg/m^3]
	absolute adsorption:   0.00000 [mol/uc],         0.0000 [mol/kg],              0.0000 [mg/g]
	                                                  0.0000 [cm^3 STP/g],          0.0000 [cm^3 STP/cm^3]
	excess adsorption:    -0.05638 [mol/uc],        -0.0671 [mol/kg],             -1.1420 [mg/g]
	                                                 -1.5030 [cm^3 STP/g],         -0.9244 [cm^3 STP/cm^3]
----------------------------------------------------------------------------------------------------------------------------------------------------
Degrees of freedom: 0 0 0 0
Number of Framework-atoms:    600
Number of Adsorbates:           0 (0 integer, 0 fractional, 0 reaction)
Number of Cations:              0 (0 integer, 0 fractional, 0 reaction)

Current total potential energy:             -4279.1180868543 [K]
	Current Host-Host energy:                     0.0000000000 [K]
	Current Host-Adsorbate energy:                0.0000000000 [K]
	Current Host-Cation energy:                   0.0000000000 [K]
	Current Adsorbate-Adsorbate energy:           0.0000000000 [K]
	Current Cation-Cation energy:                 0.0000000000 [K]
	Current Adsorbate-Cation energy:              0.0000000000 [K]

WARNING: INAPPROPRIATE NUMBER OF UNIT CELLS USED


