# vtk DataFile Version 1.0
Cube
ASCII

DATASET POLYDATA
POINTS 432 float
5.669932 8.442418 4.768617
5.106144 5.516661 4.195591
3.697092 5.385296 13.285360
4.855579 8.980194 11.107236
3.470644 7.846087 11.051529
3.373670 7.857853 13.328708
4.771300 8.971214 13.393890
5.531834 4.675285 11.109885
7.489041 6.198083 11.242129
7.396631 6.200177 13.485713
3.864732 5.317391 11.026726
5.497411 2.746829 5.293454
6.385971 1.477048 3.593878
1.632146 4.982108 4.187465
9.147103 4.995406 3.969251
9.425912 7.641266 5.222170
5.505414 6.768155 6.939920
4.769409 5.493552 13.004595
5.307314 6.839405 13.573610
5.273850 7.117500 2.032317
6.786022 7.054750 13.121154
4.873255 5.499936 11.462890
4.494838 7.990086 11.464066
4.431324 7.986234 13.004549
5.356064 7.057605 0.635527
6.858324 7.059784 11.557619
5.429469 6.859277 10.968847
5.199085 6.835675 15.013288
5.460771 6.847431 9.525810
5.479799 6.820827 8.339665
3.661682 3.920395 5.133086
7.185855 10.079967 3.795112
4.724540 0.383671 4.328031
5.980853 0.495465 3.820033
4.435866 2.684563 5.106068
3.896365 1.552310 4.650430
1.116134 5.934425 4.244819
9.646421 5.905413 4.283756
5.673762 3.925488 13.749892
7.602345 8.619207 13.993117
4.078637 9.471360 4.762414
1.823314 7.018900 4.234865
8.931243 6.873753 4.750514
7.664383 8.512248 10.857395
5.268483 5.625104 6.374119
5.780755 7.859705 6.293158
4.993231 6.026654 2.678527
5.505503 8.261254 2.597565
2.432488 3.918222 4.792125
4.317821 4.986599 5.276046
6.706141 8.909241 3.807977
8.429668 10.296859 4.013440
2.547294 1.409205 4.606200
1.177281 8.156603 3.956780
5.428173 8.241859 20.329667
4.864386 5.316103 19.756641
3.455333 5.184737 28.846410
4.613821 8.779636 26.668286
3.228885 7.645529 26.612579
3.131911 7.657294 28.889758
4.529541 8.770656 28.954940
5.290076 4.474726 26.670935
7.247282 5.997525 26.803179
7.154872 5.999619 29.046763
3.622974 5.116833 26.587776
5.255652 2.546271 20.854504
6.144212 1.276490 19.154927
1.390388 4.781550 19.748515
8.905344 4.794848 19.530301
9.184153 7.440708 20.783220
5.263656 6.567597 22.500970
4.527651 5.292994 28.565645
5.065555 6.638847 29.134660
5.032091 6.916941 17.593367
6.544264 6.854192 28.682203
4.631497 5.299378 27.023939
4.253079 7.789528 27.025116
4.189566 7.785675 28.565599
5.114306 6.857047 16.196577
6.616565 6.859226 27.118669
5.187710 6.658718 26.529897
4.957326 6.635116 30.574338
5.219012 6.646872 25.086860
5.238041 6.620269 23.900714
3.419923 3.719837 20.694136
6.944096 9.879408 19.356162
4.482782 0.183113 19.889080
5.739094 0.294907 19.381083
4.194107 2.484005 20.667118
3.654606 1.351752 20.211480
0.874375 5.733867 19.805869
9.404663 5.704854 19.844806
5.432003 3.724930 29.310942
7.360586 8.418649 29.554167
3.836878 9.270802 20.323464
1.581556 6.818341 19.795915
8.689484 6.673195 20.311564
7.422624 8.311690 26.418445
5.026725 5.424545 21.935169
5.538997 7.659147 21.854208
4.751472 5.826095 18.239577
5.263744 8.060696 18.158615
2.190730 3.717664 20.353175
4.076063 4.786041 20.837096
6.464382 8.708683 19.369027
8.187909 10.096300 19.574490
2.305535 1.208646 20.167250
0.935523 7.956045 19.517830
5.921641 19.154921 4.768617
5.357854 16.229164 4.195591
3.948801 16.097799 13.285360
5.107289 19.692698 11.107236
3.722353 18.558590 11.051529
3.625379 18.570356 13.328708
5.023009 19.683718 13.393890
5.783544 15.387788 11.109885
7.740750 16.910586 11.242129
7.648340 16.912680 13.485713
4.116442 16.029894 11.026726
5.749121 13.459332 5.293454
6.637681 12.189551 3.593878
1.883856 15.694611 4.187465
9.398813 15.707909 3.969251
9.677621 18.353769 5.222170
5.757124 17.480658 6.939920
5.021119 16.206055 13.004595
5.559024 17.551908 13.573610
5.525559 17.830003 2.032317
7.037732 17.767253 13.121154
5.124965 16.212439 11.462890
4.746547 18.702590 11.464066
4.683034 18.698737 13.004549
5.607774 17.770109 0.635527
7.110033 17.772287 11.557619
5.681179 17.571780 10.968847
5.450795 17.548178 15.013288
5.712481 17.559934 9.525810
5.731509 17.533331 8.339665
3.913391 14.632898 5.133086
7.437564 20.792470 3.795112
4.976250 11.096174 4.328031
6.232562 11.207968 3.820033
4.687575 13.397066 5.106068
4.148075 12.264814 4.650430
1.367843 16.646928 4.244819
9.898131 16.617916 4.283756
5.925472 14.637991 13.749892
7.854055 19.331710 13.993117
4.330346 20.183863 4.762414
2.075024 17.731403 4.234865
9.182953 17.586256 4.750514
7.916092 19.224751 10.857395
5.520193 16.337607 6.374119
6.032465 18.572208 6.293158
5.244941 16.739157 2.678527
5.757213 18.973758 2.597565
2.684198 14.630725 4.792125
4.569531 15.699103 5.276046
6.957850 19.621744 3.807977
8.681378 21.009362 4.013440
2.799004 12.121708 4.606200
1.428991 18.869106 3.956780
5.679883 18.954363 20.329667
5.116095 16.028606 19.756641
3.707043 15.897241 28.846410
4.865530 19.492139 26.668286
3.480594 18.358032 26.612579
3.383621 18.369797 28.889758
4.781250 19.483159 28.954940
5.541785 15.187230 26.670935
7.498992 16.710028 26.803179
7.406582 16.712122 29.046763
3.874683 15.829336 26.587776
5.507362 13.258774 20.854504
6.395922 11.988993 19.154927
1.642097 15.494053 19.748515
9.157054 15.507351 19.530301
9.435863 18.153211 20.783220
5.515365 17.280100 22.500970
4.779360 16.005497 28.565645
5.317265 17.351350 29.134660
5.283800 17.629444 17.593367
6.795973 17.566695 28.682203
4.883206 16.011881 27.023939
4.504789 18.502031 27.025116
4.441275 18.498179 28.565599
5.366015 17.569550 16.196577
6.868274 17.571729 27.118669
5.439420 17.371222 26.529897
5.209036 17.347620 30.574338
5.470722 17.359376 25.086860
5.489750 17.332772 23.900714
3.671633 14.432340 20.694136
7.195806 20.591912 19.356162
4.734491 10.895616 19.889080
5.990804 11.007410 19.381083
4.445817 13.196508 20.667118
3.906316 12.064255 20.211480
1.126085 16.446370 19.805869
9.656372 16.417358 19.844806
5.683713 14.437433 29.310942
7.612296 19.131152 29.554167
4.088587 19.983305 20.323464
1.833265 17.530845 19.795915
8.941194 17.385698 20.311564
7.674334 19.024193 26.418445
5.278434 16.137048 21.935169
5.790706 18.371650 21.854208
5.003182 16.538599 18.239577
5.515454 18.773199 18.158615
2.442439 14.430167 20.353175
4.327772 15.498544 20.837096
6.716091 19.421186 19.369027
8.439619 20.808804 19.574490
2.557245 11.921149 20.167250
1.187232 18.668548 19.517830
15.703582 8.442418 4.768617
15.139794 5.516661 4.195591
13.730742 5.385296 13.285360
14.889229 8.980194 11.107236
13.504294 7.846087 11.051529
13.407320 7.857853 13.328708
14.804950 8.971214 13.393890
15.565484 4.675285 11.109885
17.522691 6.198083 11.242129
17.430281 6.200177 13.485713
13.898382 5.317391 11.026726
15.531061 2.746829 5.293454
16.419621 1.477048 3.593878
11.665796 4.982108 4.187465
19.180753 4.995406 3.969251
19.459562 7.641266 5.222170
15.539064 6.768155 6.939920
14.803059 5.493552 13.004595
15.340964 6.839405 13.573610
15.307500 7.117500 2.032317
16.819672 7.054750 13.121154
14.906905 5.499936 11.462890
14.528488 7.990086 11.464066
14.464974 7.986234 13.004549
15.389714 7.057605 0.635527
16.891974 7.059784 11.557619
15.463119 6.859277 10.968847
15.232735 6.835675 15.013288
15.494421 6.847431 9.525810
15.513449 6.820827 8.339665
13.695332 3.920395 5.133086
17.219505 10.079967 3.795112
14.758190 0.383671 4.328031
16.014503 0.495465 3.820033
14.469516 2.684563 5.106068
13.930015 1.552310 4.650430
11.149784 5.934425 4.244819
19.680071 5.905413 4.283756
15.707412 3.925488 13.749892
17.635995 8.619207 13.993117
14.112287 9.471360 4.762414
11.856964 7.018900 4.234865
18.964893 6.873753 4.750514
17.698033 8.512248 10.857395
15.302133 5.625104 6.374119
15.814405 7.859705 6.293158
15.026881 6.026654 2.678527
15.539153 8.261254 2.597565
12.466138 3.918222 4.792125
14.351471 4.986599 5.276046
16.739791 8.909241 3.807977
18.463318 10.296859 4.013440
12.580944 1.409205 4.606200
11.210931 8.156603 3.956780
15.461823 8.241859 20.329667
14.898036 5.316103 19.756641
13.488983 5.184737 28.846410
14.647471 8.779636 26.668286
13.262535 7.645529 26.612579
13.165561 7.657294 28.889758
14.563191 8.770656 28.954940
15.323726 4.474726 26.670935
17.280932 5.997525 26.803179
17.188522 5.999619 29.046763
13.656624 5.116833 26.587776
15.289302 2.546271 20.854504
16.177862 1.276490 19.154927
11.424038 4.781550 19.748515
18.938994 4.794848 19.530301
19.217803 7.440708 20.783220
15.297306 6.567597 22.500970
14.561301 5.292994 28.565645
15.099205 6.638847 29.134660
15.065741 6.916941 17.593367
16.577914 6.854192 28.682203
14.665147 5.299378 27.023939
14.286729 7.789528 27.025116
14.223216 7.785675 28.565599
15.147956 6.857047 16.196577
16.650215 6.859226 27.118669
15.221360 6.658718 26.529897
14.990976 6.635116 30.574338
15.252662 6.646872 25.086860
15.271691 6.620269 23.900714
13.453573 3.719837 20.694136
16.977746 9.879408 19.356162
14.516432 0.183113 19.889080
15.772744 0.294907 19.381083
14.227757 2.484005 20.667118
13.688256 1.351752 20.211480
10.908025 5.733867 19.805869
19.438313 5.704854 19.844806
15.465653 3.724930 29.310942
17.394236 8.418649 29.554167
13.870528 9.270802 20.323464
11.615206 6.818341 19.795915
18.723134 6.673195 20.311564
17.456274 8.311690 26.418445
15.060375 5.424545 21.935169
15.572647 7.659147 21.854208
14.785122 5.826095 18.239577
15.297394 8.060696 18.158615
12.224380 3.717664 20.353175
14.109713 4.786041 20.837096
16.498032 8.708683 19.369027
18.221559 10.096300 19.574490
12.339185 1.208646 20.167250
10.969173 7.956045 19.517830
15.955291 19.154921 4.768617
15.391504 16.229164 4.195591
13.982451 16.097799 13.285360
15.140939 19.692698 11.107236
13.756003 18.558590 11.051529
13.659029 18.570356 13.328708
15.056659 19.683718 13.393890
15.817194 15.387788 11.109885
17.774400 16.910586 11.242129
17.681990 16.912680 13.485713
14.150092 16.029894 11.026726
15.782771 13.459332 5.293454
16.671331 12.189551 3.593878
11.917506 15.694611 4.187465
19.432463 15.707909 3.969251
19.711271 18.353769 5.222170
15.790774 17.480658 6.939920
15.054769 16.206055 13.004595
15.592674 17.551908 13.573610
15.559209 17.830003 2.032317
17.071382 17.767253 13.121154
15.158615 16.212439 11.462890
14.780197 18.702590 11.464066
14.716684 18.698737 13.004549
15.641424 17.770109 0.635527
17.143683 17.772287 11.557619
15.714829 17.571780 10.968847
15.484445 17.548178 15.013288
15.746131 17.559934 9.525810
15.765159 17.533331 8.339665
13.947041 14.632898 5.133086
17.471214 20.792470 3.795112
15.009900 11.096174 4.328031
16.266212 11.207968 3.820033
14.721225 13.397066 5.106068
14.181725 12.264814 4.650430
11.401493 16.646928 4.244819
19.931781 16.617916 4.283756
15.959122 14.637991 13.749892
17.887705 19.331710 13.993117
14.363996 20.183863 4.762414
12.108674 17.731403 4.234865
19.216603 17.586256 4.750514
17.949742 19.224751 10.857395
15.553843 16.337607 6.374119
16.066115 18.572208 6.293158
15.278591 16.739157 2.678527
15.790863 18.973758 2.597565
12.717848 14.630725 4.792125
14.603181 15.699103 5.276046
16.991500 19.621744 3.807977
18.715028 21.009362 4.013440
12.832654 12.121708 4.606200
11.462641 18.869106 3.956780
15.713533 18.954363 20.329667
15.149745 16.028606 19.756641
13.740693 15.897241 28.846410
14.899180 19.492139 26.668286
13.514244 18.358032 26.612579
13.417271 18.369797 28.889758
14.814900 19.483159 28.954940
15.575435 15.187230 26.670935
17.532642 16.710028 26.803179
17.440232 16.712122 29.046763
13.908333 15.829336 26.587776
15.541012 13.258774 20.854504
16.429572 11.988993 19.154927
11.675747 15.494053 19.748515
19.190704 15.507351 19.530301
19.469513 18.153211 20.783220
15.549015 17.280100 22.500970
14.813010 16.005497 28.565645
15.350915 17.351350 29.134660
15.317450 17.629444 17.593367
16.829623 17.566695 28.682203
14.916856 16.011881 27.023939
14.538439 18.502031 27.025116
14.474925 18.498179 28.565599
15.399665 17.569550 16.196577
16.901924 17.571729 27.118669
15.473070 17.371222 26.529897
15.242686 17.347620 30.574338
15.504372 17.359376 25.086860
15.523400 17.332772 23.900714
13.705283 14.432340 20.694136
17.229456 20.591912 19.356162
14.768141 10.895616 19.889080
16.024454 11.007410 19.381083
14.479467 13.196508 20.667118
13.939966 12.064255 20.211480
11.159735 16.446370 19.805869
19.690022 16.417358 19.844806
15.717363 14.437433 29.310942
17.645946 19.131152 29.554167
14.122237 19.983305 20.323464
11.866915 17.530845 19.795915
18.974844 17.385698 20.311564
17.707984 19.024193 26.418445
15.312084 16.137048 21.935169
15.824356 18.371650 21.854208
15.036832 16.538599 18.239577
15.549104 18.773199 18.158615
12.476089 14.430167 20.353175
14.361422 15.498544 20.837096
16.749741 19.421186 19.369027
18.473269 20.808804 19.574490
12.590895 11.921149 20.167250
11.220882 18.668548 19.517830
POINT_DATA 432
SCALARS my_scalars float
LOOKUP_TABLE default
1.39
1.39
1.09
1.09
1.09
1.09
1.09
1.09
1.09
1.09
1.09
1.09
1.09
1.09
1.09
1.09
1.7
1.7
1.7
1.7
1.7
1.7
1.7
1.7
1.7
1.7
1.7
1.7
1.7
1.7
1.7
1.7
1.7
1.7
1.7
1.7
1.7
1.7
1.85
1.85
1.85
1.55
1.55
1.75
1.52
1.52
1.52
1.52
1.52
1.52
1.52
1.52
1.47
1.47
1.39
1.39
1.09
1.09
1.09
1.09
1.09
1.09
1.09
1.09
1.09
1.09
1.09
1.09
1.09
1.09
1.7
1.7
1.7
1.7
1.7
1.7
1.7
1.7
1.7
1.7
1.7
1.7
1.7
1.7
1.7
1.7
1.7
1.7
1.7
1.7
1.7
1.7
1.85
1.85
1.85
1.55
1.55
1.75
1.52
1.52
1.52
1.52
1.52
1.52
1.52
1.52
1.47
1.47
1.39
1.39
1.09
1.09
1.09
1.09
1.09
1.09
1.09
1.09
1.09
1.09
1.09
1.09
1.09
1.09
1.7
1.7
1.7
1.7
1.7
1.7
1.7
1.7
1.7
1.7
1.7
1.7
1.7
1.7
1.7
1.7
1.7
1.7
1.7
1.7
1.7
1.7
1.85
1.85
1.85
1.55
1.55
1.75
1.52
1.52
1.52
1.52
1.52
1.52
1.52
1.52
1.47
1.47
1.39
1.39
1.09
1.09
1.09
1.09
1.09
1.09
1.09
1.09
1.09
1.09
1.09
1.09
1.09
1.09
1.7
1.7
1.7
1.7
1.7
1.7
1.7
1.7
1.7
1.7
1.7
1.7
1.7
1.7
1.7
1.7
1.7
1.7
1.7
1.7
1.7
1.7
1.85
1.85
1.85
1.55
1.55
1.75
1.52
1.52
1.52
1.52
1.52
1.52
1.52
1.52
1.47
1.47
1.39
1.39
1.09
1.09
1.09
1.09
1.09
1.09
1.09
1.09
1.09
1.09
1.09
1.09
1.09
1.09
1.7
1.7
1.7
1.7
1.7
1.7
1.7
1.7
1.7
1.7
1.7
1.7
1.7
1.7
1.7
1.7
1.7
1.7
1.7
1.7
1.7
1.7
1.85
1.85
1.85
1.55
1.55
1.75
1.52
1.52
1.52
1.52
1.52
1.52
1.52
1.52
1.47
1.47
1.39
1.39
1.09
1.09
1.09
1.09
1.09
1.09
1.09
1.09
1.09
1.09
1.09
1.09
1.09
1.09
1.7
1.7
1.7
1.7
1.7
1.7
1.7
1.7
1.7
1.7
1.7
1.7
1.7
1.7
1.7
1.7
1.7
1.7
1.7
1.7
1.7
1.7
1.85
1.85
1.85
1.55
1.55
1.75
1.52
1.52
1.52
1.52
1.52
1.52
1.52
1.52
1.47
1.47
1.39
1.39
1.09
1.09
1.09
1.09
1.09
1.09
1.09
1.09
1.09
1.09
1.09
1.09
1.09
1.09
1.7
1.7
1.7
1.7
1.7
1.7
1.7
1.7
1.7
1.7
1.7
1.7
1.7
1.7
1.7
1.7
1.7
1.7
1.7
1.7
1.7
1.7
1.85
1.85
1.85
1.55
1.55
1.75
1.52
1.52
1.52
1.52
1.52
1.52
1.52
1.52
1.47
1.47
1.39
1.39
1.09
1.09
1.09
1.09
1.09
1.09
1.09
1.09
1.09
1.09
1.09
1.09
1.09
1.09
1.7
1.7
1.7
1.7
1.7
1.7
1.7
1.7
1.7
1.7
1.7
1.7
1.7
1.7
1.7
1.7
1.7
1.7
1.7
1.7
1.7
1.7
1.85
1.85
1.85
1.55
1.55
1.75
1.52
1.52
1.52
1.52
1.52
1.52
1.52
1.52
1.47
1.47
VECTORS vectors float
0.4375 0 0
0.4375 0 0
0.25 0 0
0.25 0 0
0.25 0 0
0.25 0 0
0.25 0 0
0.25 0 0
0.25 0 0
0.25 0 0
0.25 0 0
0.25 0 0
0.25 0 0
0.25 0 0
0.25 0 0
0.25 0 0
0.3125 0 0
0.3125 0 0
0.3125 0 0
0.3125 0 0
0.3125 0 0
0.3125 0 0
0.3125 0 0
0.3125 0 0
0.3125 0 0
0.3125 0 0
0.3125 0 0
0.3125 0 0
0.3125 0 0
0.3125 0 0
0.3125 0 0
0.3125 0 0
0.3125 0 0
0.3125 0 0
0.3125 0 0
0.3125 0 0
0.3125 0 0
0.3125 0 0
0.4375 0 0
0.4375 0 0
0.4375 0 0
0 0 0
0 0 0
0.4375 0 0
0.03125 0 0
0.03125 0 0
0.03125 0 0
0.03125 0 0
0.03125 0 0
0.03125 0 0
0.03125 0 0
0.03125 0 0
0.4375 0 0
0.4375 0 0
0.4375 0 0
0.4375 0 0
0.25 0 0
0.25 0 0
0.25 0 0
0.25 0 0
0.25 0 0
0.25 0 0
0.25 0 0
0.25 0 0
0.25 0 0
0.25 0 0
0.25 0 0
0.25 0 0
0.25 0 0
0.25 0 0
0.3125 0 0
0.3125 0 0
0.3125 0 0
0.3125 0 0
0.3125 0 0
0.3125 0 0
0.3125 0 0
0.3125 0 0
0.3125 0 0
0.3125 0 0
0.3125 0 0
0.3125 0 0
0.3125 0 0
0.3125 0 0
0.3125 0 0
0.3125 0 0
0.3125 0 0
0.3125 0 0
0.3125 0 0
0.3125 0 0
0.3125 0 0
0.3125 0 0
0.4375 0 0
0.4375 0 0
0.4375 0 0
0 0 0
0 0 0
0.4375 0 0
0.03125 0 0
0.03125 0 0
0.03125 0 0
0.03125 0 0
0.03125 0 0
0.03125 0 0
0.03125 0 0
0.03125 0 0
0.4375 0 0
0.4375 0 0
0.4375 0 0
0.4375 0 0
0.25 0 0
0.25 0 0
0.25 0 0
0.25 0 0
0.25 0 0
0.25 0 0
0.25 0 0
0.25 0 0
0.25 0 0
0.25 0 0
0.25 0 0
0.25 0 0
0.25 0 0
0.25 0 0
0.3125 0 0
0.3125 0 0
0.3125 0 0
0.3125 0 0
0.3125 0 0
0.3125 0 0
0.3125 0 0
0.3125 0 0
0.3125 0 0
0.3125 0 0
0.3125 0 0
0.3125 0 0
0.3125 0 0
0.3125 0 0
0.3125 0 0
0.3125 0 0
0.3125 0 0
0.3125 0 0
0.3125 0 0
0.3125 0 0
0.3125 0 0
0.3125 0 0
0.4375 0 0
0.4375 0 0
0.4375 0 0
0 0 0
0 0 0
0.4375 0 0
0.03125 0 0
0.03125 0 0
0.03125 0 0
0.03125 0 0
0.03125 0 0
0.03125 0 0
0.03125 0 0
0.03125 0 0
0.4375 0 0
0.4375 0 0
0.4375 0 0
0.4375 0 0
0.25 0 0
0.25 0 0
0.25 0 0
0.25 0 0
0.25 0 0
0.25 0 0
0.25 0 0
0.25 0 0
0.25 0 0
0.25 0 0
0.25 0 0
0.25 0 0
0.25 0 0
0.25 0 0
0.3125 0 0
0.3125 0 0
0.3125 0 0
0.3125 0 0
0.3125 0 0
0.3125 0 0
0.3125 0 0
0.3125 0 0
0.3125 0 0
0.3125 0 0
0.3125 0 0
0.3125 0 0
0.3125 0 0
0.3125 0 0
0.3125 0 0
0.3125 0 0
0.3125 0 0
0.3125 0 0
0.3125 0 0
0.3125 0 0
0.3125 0 0
0.3125 0 0
0.4375 0 0
0.4375 0 0
0.4375 0 0
0 0 0
0 0 0
0.4375 0 0
0.03125 0 0
0.03125 0 0
0.03125 0 0
0.03125 0 0
0.03125 0 0
0.03125 0 0
0.03125 0 0
0.03125 0 0
0.4375 0 0
0.4375 0 0
0.4375 0 0
0.4375 0 0
0.25 0 0
0.25 0 0
0.25 0 0
0.25 0 0
0.25 0 0
0.25 0 0
0.25 0 0
0.25 0 0
0.25 0 0
0.25 0 0
0.25 0 0
0.25 0 0
0.25 0 0
0.25 0 0
0.3125 0 0
0.3125 0 0
0.3125 0 0
0.3125 0 0
0.3125 0 0
0.3125 0 0
0.3125 0 0
0.3125 0 0
0.3125 0 0
0.3125 0 0
0.3125 0 0
0.3125 0 0
0.3125 0 0
0.3125 0 0
0.3125 0 0
0.3125 0 0
0.3125 0 0
0.3125 0 0
0.3125 0 0
0.3125 0 0
0.3125 0 0
0.3125 0 0
0.4375 0 0
0.4375 0 0
0.4375 0 0
0 0 0
0 0 0
0.4375 0 0
0.03125 0 0
0.03125 0 0
0.03125 0 0
0.03125 0 0
0.03125 0 0
0.03125 0 0
0.03125 0 0
0.03125 0 0
0.4375 0 0
0.4375 0 0
0.4375 0 0
0.4375 0 0
0.25 0 0
0.25 0 0
0.25 0 0
0.25 0 0
0.25 0 0
0.25 0 0
0.25 0 0
0.25 0 0
0.25 0 0
0.25 0 0
0.25 0 0
0.25 0 0
0.25 0 0
0.25 0 0
0.3125 0 0
0.3125 0 0
0.3125 0 0
0.3125 0 0
0.3125 0 0
0.3125 0 0
0.3125 0 0
0.3125 0 0
0.3125 0 0
0.3125 0 0
0.3125 0 0
0.3125 0 0
0.3125 0 0
0.3125 0 0
0.3125 0 0
0.3125 0 0
0.3125 0 0
0.3125 0 0
0.3125 0 0
0.3125 0 0
0.3125 0 0
0.3125 0 0
0.4375 0 0
0.4375 0 0
0.4375 0 0
0 0 0
0 0 0
0.4375 0 0
0.03125 0 0
0.03125 0 0
0.03125 0 0
0.03125 0 0
0.03125 0 0
0.03125 0 0
0.03125 0 0
0.03125 0 0
0.4375 0 0
0.4375 0 0
0.4375 0 0
0.4375 0 0
0.25 0 0
0.25 0 0
0.25 0 0
0.25 0 0
0.25 0 0
0.25 0 0
0.25 0 0
0.25 0 0
0.25 0 0
0.25 0 0
0.25 0 0
0.25 0 0
0.25 0 0
0.25 0 0
0.3125 0 0
0.3125 0 0
0.3125 0 0
0.3125 0 0
0.3125 0 0
0.3125 0 0
0.3125 0 0
0.3125 0 0
0.3125 0 0
0.3125 0 0
0.3125 0 0
0.3125 0 0
0.3125 0 0
0.3125 0 0
0.3125 0 0
0.3125 0 0
0.3125 0 0
0.3125 0 0
0.3125 0 0
0.3125 0 0
0.3125 0 0
0.3125 0 0
0.4375 0 0
0.4375 0 0
0.4375 0 0
0 0 0
0 0 0
0.4375 0 0
0.03125 0 0
0.03125 0 0
0.03125 0 0
0.03125 0 0
0.03125 0 0
0.03125 0 0
0.03125 0 0
0.03125 0 0
0.4375 0 0
0.4375 0 0
0.4375 0 0
0.4375 0 0
0.25 0 0
0.25 0 0
0.25 0 0
0.25 0 0
0.25 0 0
0.25 0 0
0.25 0 0
0.25 0 0
0.25 0 0
0.25 0 0
0.25 0 0
0.25 0 0
0.25 0 0
0.25 0 0
0.3125 0 0
0.3125 0 0
0.3125 0 0
0.3125 0 0
0.3125 0 0
0.3125 0 0
0.3125 0 0
0.3125 0 0
0.3125 0 0
0.3125 0 0
0.3125 0 0
0.3125 0 0
0.3125 0 0
0.3125 0 0
0.3125 0 0
0.3125 0 0
0.3125 0 0
0.3125 0 0
0.3125 0 0
0.3125 0 0
0.3125 0 0
0.3125 0 0
0.4375 0 0
0.4375 0 0
0.4375 0 0
0 0 0
0 0 0
0.4375 0 0
0.03125 0 0
0.03125 0 0
0.03125 0 0
0.03125 0 0
0.03125 0 0
0.03125 0 0
0.03125 0 0
0.03125 0 0
0.4375 0 0
0.4375 0 0
